LAMMPS (23 Jun 2022 - Update 4)
  using 1 OpenMP thread(s) per MPI task
package omp 0
using multi-threaded neighbor list subroutines
#-----------------------------------------------------------------------------#
#                NUFEB Simulation: Heterotrophic Biofilm Growth               #
#-----------------------------------------------------------------------------#


#-----------------------------System Settings---------------------------------#

units si                                    # using si units (m, s, kg)
atom_style      coccus                      # using nufeb coccus atom style
atom_modify     map array sort 10 0         # map array - find atoms using indices
		                            # sort every 10

boundary        pp pp ff                    # periodic boundaries in x and y
                                            # fixed boundary in z

newton          off                         # forces between local and ghost
                                            # atoms are computed in each
					     # processor without communication

processors      * * 1                       # processor grid

comm_modify     vel yes                     # communicate velocities for ghost atoms

read_data       atom_ch.in	             # read atom.in file which defines domain size
Reading data file ...
  orthogonal box = (0 0 0) to (6e-05 6e-05 6e-05)
  4 by 4 by 1 MPI processor grid
  reading atoms ...
  150 atoms
  read_data CPU = 0.021 seconds
                                            # and initial atoms


#--------------------Microbes and Functional Groups-------------------------#

group           CROSS1   type 1               # assign type 1,2 atoms to CROSS group
50 atoms in group CROSS1
group           CROSS2   type 2
50 atoms in group CROSS2
group		CHEATER  type 3
50 atoms in group CHEATER
group           dead     type 4
0 atoms in group dead
group		EPS	 type 5
0 atoms in group EPS

neighbor        5e-7 bin                   # setting neighbour skin distance and style

neigh_modify    check yes                  # rebuild neighbour list if any atom
                                           # had moved more than half the skin distance


#--------------------------Mesh Grid and Substrates--------------------------#

# defining grid sytle, substrate names, and grid size
grid_style      nufeb/chemostat 3 sub metab1 metab2 5e-6

# set diffusion boundary conditions and initial concentrations (liquid:kg/m3)
grid_modify     set sub      pp pp nd  1.8e-4
No /omp style for force computation currently active
grid_modify     set metab1   pp pp nd  1e-4
No /omp style for force computation currently active
grid_modify     set metab2   pp pp nd  1e-4
No /omp style for force computation currently active


#--------------------------Biological Processes-------------------------------#

# heterotrophs growth
fix growth_cross1 CROSS1 nufeb/growth/cross1 sub 3.5e-5 metab2 4e-3 metab1 growth 0.009 yield 0.6 decay 2.6e-6 metab1_exp 20 epsyield 0.12 epsdens 30

fix growth_cross2 CROSS2 nufeb/growth/cross2 sub 3.5e-5 metab1 4e-3 metab2 growth 0.009 yield 0.6 decay 2.6e-6 metab2_exp 20 epsyield 0.12 epsdens 30

fix growth_cheater CHEATER nufeb/growth/cheater sub 3.5e-5 metab1 1e-3 metab2 1e-3 growth 0.009 yield 0.6 decay 2.6e-6

# heterotrophs division, division diameter: 1.36e-6
fix div1 CROSS1 nufeb/division/coccus 1.36e-6 359
fix div2 CROSS2 nufeb/division/coccus 1.36e-6 1130
fix div3 CHEATER nufeb/division/coccus 1.36e-6 2413

fix death1 CROSS1 nufeb/death/diameter dead 5.43e-7
fix death2 CROSS2 nufeb/death/diameter dead 5.43e-7
fix death3 CHEATER nufeb/death/diameter dead 5.43e-7

# EPS secretion from heterotrophs
fix eps1 CROSS1 nufeb/eps_secretion 5 EPS 1.1 30 4208
fix eps2 CROSS2 nufeb/eps_secretion 5 EPS 1.1 30 6515

#---------------------------Physical Processes--------------------------------#

pair_style  gran/hooke/history 1e-4 NULL 1e-5 NULL 0.0 0    # pairwise interaction
pair_coeff  * *                                             # between atoms

# pairwise interaction between z-wall and atoms
fix wall all wall/gran hooke/history 1e-3 NULL 1e-4 NULL 0 0 zplane 0.0 1e-04

fix vis all viscous 1e-5                                    # viscous damping force

fix grav all gravity 9.81 vector 0.0 0.0 -1.0

fix nve all nve/limit 1e-7                                  # NVE integration with
                                                            # maximum distance limit


#---------------------------Post-Physical Processes---------------------------#

fix coeff_sub all nufeb/diffusion_coeff sub ratio 0.8       # defining diffusion coeff in the biofilm
fix coeff_metab1 all nufeb/diffusion_coeff metab1 ratio 0.8    # region is 80% of the value in liquid
fix coeff_metab2 all nufeb/diffusion_coeff metab2 ratio 0.8

#---------------------------Chemical Processes---------------------------------#

fix diff_sub all nufeb/diffusion_reaction sub 1e-9        # diffusion reaction for updating
fix diff_metab1 all nufeb/diffusion_reaction metab1 4e-9     # distribusion of substrate concentration
fix diff_metab2 all nufeb/diffusion_reaction metab2 4e-9

#--------------------------Computations and Outputs----------------------------#

variable mass equal "mass(all)"                             # total mass
variable ncross1 equal "count(CROSS1)"                      # total # of CROSS1
variable ncross2 equal "count(CROSS2)"                      # total # of CROSS2
variable ncheater equal "count(CHEATER)"
variable ndead equal "count(dead)"
variable neps equal "count(EPS)"

shell mkdir vtk_EPS_ch                                            # dump vtk files to /vtk folder
dump du1 all vtk 10 vtk_EPS_ch/dump*.vtu id type diameter         # require build NUFEB with vtk option
dump du2 all grid/vtk 10 vtk_EPS_ch/dump_%_*.vti con rea den gro

#dump du3 all movie 10 movie.avi type diameter view 80 60    # dump video
#dump_modify du3 acolor 1 blue acolor 2 lightgrey framerate 10


                                                            # dump hdf5 files to /hdf5 folder
#shell mkdir hdf5                                           # require build NUFEB with hdf5 option
#dump du3 all nufeb/hdf5 10 dump.h5 id type x y z vx vy vz fx fy fz radius conc reac

thermo_style custom step cpu atoms v_ncross1 v_ncross2 v_ncheater v_ndead v_neps v_mass     # screen and log outputs
thermo 1
thermo_modify   lost ignore

#-----------------------------------Run----------------------------------------#

# issue run command, define timesteps for physical (pairdt) and chemical (diffdt) processes
run_style nufeb diffdt 1e-4 difftol 1e-6 pairdt 1e-2 pairtol 1 pairmax 1000 diffmax 5000

timestep 12000                                               # define biological timesteps (1000s)

run 320                                                    # growing biofilm for 900x1000s
Generated 0 of 6 mixed pair_coeff terms from geometric mixing rule
Last active /omp style is pair_style gran/hooke/history/omp
Neighbor list info ...
  update every 1 steps, delay 10 steps, check yes
  max neighbors/atom: 2000, page size: 100000
  master list distance cutoff = 2.49e-06
  ghost atom cutoff = 2.49e-06
  binsize = 1.245e-06, bins = 49 49 49
  1 neighbor lists, perpetual/occasional/extra = 1 0 0
  (1) pair gran/hooke/history/omp, perpetual
      attributes: half, newton off, size, history, omp
      pair build: half/size/bin/newtoff/omp
      stencil: full/bin/3d
      bin: standard
Per MPI rank memory allocation (min/avg/max) = 11.02 | 11.02 | 11.02 Mbytes
   Step          CPU          Atoms      v_ncross1      v_ncross2      v_ncheater      v_ndead         v_neps         v_mass    
         0   0                    150   50             50             50             0              0              1.3295396e-13
         1   0.38654094           432   90             85             86             0              171            1.7261228e-13
         2   0.77232564           802   122            126            137            0              417            1.9513645e-13
         3   1.101415            1133   130            143            178            0              682            2.1447369e-13
         4   1.4137688           1436   138            150            202            0              946            2.3236353e-13
         5   1.6355563           1759   142            161            217            0              1239           2.4990466e-13
         6   1.81902             2079   147            168            234            0              1530           2.6708084e-13
         7   1.9602436           2429   152            181            254            0              1842           2.8416211e-13
         8   2.1083454           2791   163            190            274            0              2164           3.0061819e-13
         9   2.2595278           3153   169            195            291            0              2498           3.1691676e-13
        10   2.4123704           3540   175            206            318            0              2841           3.331355e-13 
        11   2.5440098           3912   179            214            335            0              3184           3.4901888e-13
        12   2.6605075           4306   181            224            356            0              3545           3.6443234e-13
        13   2.7909607           4686   186            228            373            0              3899           3.7955648e-13
        14   2.8990942           5078   195            232            390            0              4261           3.9431269e-13
        15   2.9972276           5474   199            238            407            0              4630           4.0869928e-13
        16   3.1185487           5862   202            243            427            0              4990           4.2269871e-13
        17   3.2204444           6244   204            247            440            0              5353           4.3611717e-13
        18   3.304209            6657   214            252            457            0              5734           4.4917756e-13
        19   3.4125527           7058   219            258            479            0              6102           4.617887e-13 
        20   16.744378           7469   230            259            496            0              6484           4.7404264e-13
        21   16.836889           7863   231            262            517            0              6853           4.8590997e-13
        22   16.923268           8254   234            263            527            0              7230           4.9743743e-13
        23   17.028672           8678   237            271            544            0              7626           5.0874528e-13
        24   17.10483            9072   240            278            558            0              7996           5.1928498e-13
        25   17.210843           9474   243            283            573            0              8375           5.2944675e-13
        26   17.302363           9883   245            285            589            0              8764           5.3939598e-13
        27   17.395569          10277   248            287            601            0              9141           5.490164e-13 
        28   17.501353          10662   250            289            616            0              9507           5.5826557e-13
        29   17.613203          11068   253            292            629            0              9894           5.6736188e-13
        30   36.710709          11452   256            293            637            0              10266          5.7615219e-13
        31   36.8658            11840   260            296            647            0              10637          5.8484496e-13
        32   37.00277           12238   268            298            656            0              11016          5.9355261e-13
        33   37.140116          12626   270            299            669            0              11388          6.0205107e-13
        34   37.29114           13006   270            305            685            0              11746          6.103095e-13 
        35   37.487109          13404   270            306            697            0              12131          6.1871107e-13
        36   37.74687           13805   277            308            712            0              12508          6.2698449e-13
        37   37.974566          14203   278            313            729            0              12883          6.3520014e-13
        38   38.250693          14606   281            316            741            0              13268          6.4299105e-13
        39   38.568076          15003   283            319            752            0              13649          6.5046049e-13
        40   39.00623           15407   284            324            768            0              14031          6.5845764e-13
        41   39.266819          15810   289            325            788            0              14408          6.6579731e-13
        42   39.851169          16206   291            326            796            0              14793          6.7336192e-13
        43   40.658834          16594   291            326            813            0              15164          6.8085527e-13
        44   41.224007          16978   292            326            825            0              15535          6.8863403e-13
        45   42.18747           17363   293            327            842            0              15901          6.9640817e-13
        46   43.151869          17749   294            328            856            0              16271          7.0379651e-13
        47   44.136454          18143   294            331            881            0              16637          7.1140192e-13
        48   45.101322          18532   297            333            890            0              17012          7.1868379e-13
        49   46.090188          18927   299            334            909            0              17385          7.2583685e-13
        50   47.143197          19309   301            335            926            0              17747          7.3289616e-13
        51   48.165814          19717   304            338            940            0              18135          7.3958385e-13
        52   49.188274          20091   309            338            951            0              18493          7.4592872e-13
        53   50.241525          20488   310            340            965            0              18873          7.5199699e-13
        54   51.302435          20882   312            344            979            1              19246          7.581302e-13 
        55   52.391613          21289   313            347            989            1              19639          7.6409981e-13
        56   53.568457          21697   318            348            1008           2              20021          7.6980265e-13
        57   54.77494           22098   322            352            1023           2              20399          7.759529e-13 
        58   55.995267          22516   326            353            1041           2              20794          7.8238584e-13
        59   57.279959          22916   327            353            1055           3              21178          7.8865963e-13
        60   58.716228          23350   328            355            1075           4              21588          7.9557251e-13
        61   60.051314          23728   329            356            1090           4              21949          8.028254e-13 
        62   61.447422          24170   335            360            1111           4              22360          8.1050472e-13
        63   62.834618          24556   335            360            1127           8              22726          8.1863679e-13
        64   64.24886           24992   337            360            1153           13             23129          8.2714301e-13
        65   65.656479          25372   337            361            1162           16             23496          8.357032e-13 
        66   67.083603          25786   338            361            1183           19             23885          8.4410489e-13
        67   68.505672          26191   340            363            1211           19             24258          8.5234043e-13
        68   69.956875          26596   342            363            1221           25             24645          8.6039624e-13
        69   71.444917          27009   343            364            1244           25             25033          8.6811472e-13
        70   73.025964          27428   344            365            1263           29             25427          8.7589363e-13
        71   74.564355          27836   345            365            1284           32             25810          8.8370207e-13
        72   76.174516          28259   346            367            1313           37             26196          8.9132092e-13
        73   77.795013          28650   346            368            1334           40             26562          8.991349e-13 
        74   79.517108          29076   346            370            1345           49             26966          9.0703043e-13
        75   81.257012          29459   346            370            1360           52             27331          9.1575106e-13
        76   83.08645           29879   348            371            1374           59             27727          9.249585e-13 
        77   84.950758          30271   348            372            1398           65             28088          9.3470823e-13
        78   86.855566          30701   348            373            1424           73             28483          9.4544611e-13
        79   88.81127           31110   349            373            1452           82             28854          9.5687555e-13
        80   90.840135          31504   349            373            1476           89             29217          9.6911592e-13
        81   92.836516          31930   351            375            1510           96             29598          9.8204621e-13
        82   94.841207          32332   354            375            1542           104            29957          9.9513499e-13
        83   96.876435          32753   355            377            1576           117            30328          1.0086471e-12
        84   98.906751          33156   355            377            1609           127            30688          1.0221341e-12
        85   100.99835          33578   355            377            1638           145            31063          1.0354602e-12
        86   103.12411          33990   355            378            1680           155            31422          1.0488123e-12
        87   105.29865          34402   356            379            1715           160            31792          1.0623214e-12
        88   107.5535           34833   358            379            1762           169            32165          1.076128e-12 
        89   109.86418          35238   360            379            1796           183            32520          1.09019e-12  
        90   112.36351          35654   362            379            1841           197            32875          1.1050814e-12
        91   114.82448          36082   362            379            1885           209            33247          1.121172e-12 
        92   117.28619          36471   362            380            1932           219            33578          1.1379042e-12
        93   119.77107          36899   362            380            1981           230            33946          1.155395e-12 
        94   122.28313          37321   363            380            2037           241            34300          1.1731906e-12
        95   124.84066          37734   363            380            2082           254            34655          1.1913535e-12
        96   127.40748          38129   363            380            2132           268            34986          1.209782e-12 
        97   129.99001          38568   363            381            2194           276            35354          1.2281585e-12
        98   132.6178           38967   364            381            2254           282            35686          1.2460653e-12
        99   135.26359          39391   365            381            2315           292            36038          1.2636873e-12
       100   138.16454          39800   365            381            2385           299            36370          1.2810606e-12
       101   141.06575          40214   366            382            2437           304            36725          1.2993306e-12
       102   143.96863          40613   366            382            2498           311            37056          1.3180127e-12
       103   146.95331          41012   366            382            2552           318            37394          1.3375102e-12
       104   150.02141          41432   368            382            2628           326            37728          1.3574786e-12
       105   153.11009          41855   368            382            2712           331            38062          1.378552e-12 
       106   156.28029          42257   368            382            2791           336            38380          1.4001668e-12
       107   159.48248          42652   369            382            2858           345            38698          1.4226906e-12
       108   162.71928          43078   369            382            2956           348            39023          1.445446e-12 
       109   165.97368          43481   369            382            3028           354            39348          1.468379e-12 
       110   169.38943          43871   370            382            3106           362            39651          1.4909328e-12
       111   172.76816          44275   370            382            3183           367            39973          1.5134116e-12
       112   176.198            44679   370            382            3261           369            40297          1.5359905e-12
       113   179.65738          45063   371            382            3351           372            40587          1.558095e-12 
       114   183.24656          45465   372            382            3438           378            40895          1.5801132e-12
       115   186.85829          45876   372            382            3517           389            41216          1.6029783e-12
       116   190.56101          46276   372            382            3606           393            41523          1.6256192e-12
       117   194.3288           46670   374            382            3699           402            41813          1.6495946e-12
       118   198.14697          47074   374            383            3776           412            42129          1.6741172e-12
       119   201.99799          47471   374            383            3863           420            42431          1.6992668e-12
       120   206.08667          47882   374            383            3975           426            42724          1.7246258e-12
       121   210.09967          48290   375            383            4074           432            43026          1.7505474e-12
       122   214.16037          48683   376            383            4148           454            43322          1.7766768e-12
       123   218.30261          49085   377            383            4244           471            43610          1.8028817e-12
       124   222.50551          49526   377            384            4346           485            43934          1.8293852e-12
       125   226.81017          49903   378            385            4423           506            44211          1.8552224e-12
       126   231.17458          50310   378            385            4513           530            44504          1.8813693e-12
       127   235.58758          50728   377            385            4594           556            44816          1.9074153e-12
       128   240.09822          51114   377            386            4677           592            45082          1.9337977e-12
       129   244.67489          51555   379            386            4766           620            45404          1.961458e-12 
       130   249.44605          51935   379            386            4860           648            45662          1.9897323e-12
       131   254.18298          52339   380            386            4937           685            45951          2.0186264e-12
       132   258.98954          52763   380            386            5033           719            46245          2.0484137e-12
       133   263.861            53180   382            387            5131           754            46526          2.0788136e-12
       134   268.79378          53602   382            390            5225           794            46811          2.1102249e-12
       135   273.79522          54009   383            390            5295           841            47100          2.1418483e-12
       136   278.85994          54428   383            390            5412           876            47367          2.1737748e-12
       137   284.01127          54851   384            390            5510           914            47653          2.2055626e-12
       138   289.26568          55277   385            390            5622           944            47936          2.2372805e-12
       139   294.59425          55689   386            389            5726           982            48206          2.2694686e-12
       140   300.14917          56111   386            390            5805           1031           48499          2.3017749e-12
       141   305.65466          56546   386            390            5925           1069           48776          2.3345448e-12
       142   311.25929          56998   389            390            6034           1118           49067          2.3688924e-12
       143   316.96714          57449   390            389            6159           1163           49348          2.4044685e-12
       144   322.71525          57879   391            390            6285           1197           49616          2.4411064e-12
       145   328.55205          58329   391            391            6385           1251           49911          2.4788124e-12
       146   334.51196          58784   390            392            6496           1304           50202          2.5174285e-12
       147   340.63791          59244   389            393            6631           1356           50475          2.5570556e-12
       148   346.79409          59687   388            393            6760           1396           50750          2.5966783e-12
       149   353.06206          60148   389            393            6885           1442           51039          2.6359195e-12
       150   359.57559          60605   389            393            7043           1473           51307          2.6745849e-12
       151   366.0894           61072   389            393            7172           1522           51596          2.7135077e-12
       152   372.71309          61536   389            394            7312           1566           51875          2.7538314e-12
       153   379.39941          61995   388            394            7453           1610           52150          2.7944992e-12
       154   386.23411          62464   388            395            7581           1653           52447          2.8367283e-12
       155   393.17303          62927   388            395            7715           1714           52715          2.8800399e-12
       156   400.19015          63406   388            395            7849           1773           53001          2.9261506e-12
       157   407.32019          63897   388            395            8013           1821           53280          2.9736498e-12
       158   414.54386          64358   388            395            8182           1859           53534          3.0227008e-12
       159   421.89859          64843   388            395            8351           1905           53804          3.0728571e-12
       160   429.53334          65363   388            393            8548           1945           54089          3.1243337e-12
       161   437.08355          65845   387            393            8714           2000           54351          3.1766471e-12
       162   444.753            66313   386            393            8857           2059           54618          3.2297747e-12
       163   452.50738          66838   386            394            9059           2114           54885          3.2851447e-12
       164   460.40752          67346   386            393            9246           2170           55151          3.3426576e-12
       165   468.47851          67887   386            393            9457           2219           55432          3.4041386e-12
       166   476.67214          68405   385            393            9649           2285           55693          3.4695713e-12
       167   485.00369          68937   385            392            9874           2344           55942          3.5388068e-12
       168   493.44115          69520   385            392            10117          2393           56233          3.6119007e-12
       169   502.01786          70038   385            392            10331          2451           56479          3.687618e-12 
       170   510.92794          70641   385            392            10629          2501           56734          3.7665256e-12
       171   519.8168           71254   386            392            10914          2555           57007          3.8501694e-12
       172   528.88111          71872   386            392            11206          2607           57281          3.9391641e-12
       173   538.07165          72489   387            392            11516          2667           57527          4.0348568e-12
       174   547.42761          73109   387            390            11832          2733           57767          4.1387875e-12
       175   556.94441          73787   387            390            12183          2790           58037          4.2535871e-12
       176   566.68117          74504   387            390            12560          2848           58319          4.3777444e-12
       177   576.55267          75221   387            389            12970          2911           58564          4.5121433e-12
       178   586.63121          75994   387            388            13416          2975           58828          4.6546618e-12
       179   596.92084          76739   387            388            13847          3039           59078          4.7959567e-12
       180   607.63314          77556   387            388            14327          3112           59342          4.9480797e-12
       181   618.38254          78356   387            388            14783          3193           59605          5.1022336e-12
       182   629.26549          79123   388            387            15223          3260           59865          5.2521687e-12
       183   640.41532          79918   388            387            15690          3341           60112          5.4059431e-12
       184   651.74345          80724   388            387            16128          3445           60376          5.5570026e-12
       185   663.30666          81578   388            387            16622          3536           60645          5.7164142e-12
       186   675.08332          82435   388            387            17108          3637           60915          5.8778553e-12
       187   687.01929          83196   388            386            17517          3752           61153          6.0237335e-12
       188   699.12655          84081   388            385            18013          3879           61416          6.1828954e-12
       189   711.43811          84946   387            385            18462          4027           61685          6.3403685e-12
       190   724.09469          85761   387            384            18903          4155           61932          6.4966958e-12
       191   736.63451          86600   386            382            19357          4306           62169          6.6653107e-12
       192   749.34092          87550   386            380            19914          4443           62427          6.8513642e-12
       193   762.09189          88418   382            379            20372          4614           62671          7.02495e-12  
       194   774.96977          89379   382            376            20965          4750           62906          7.2056589e-12
       195   787.93569          90256   381            373            21466          4900           63136          7.3793717e-12
       196   801.00058          91160   381            370            22020          5034           63355          7.5673375e-12
       197   814.15934          92097   381            370            22539          5201           63606          7.7423176e-12
       198   827.38867          93021   381            367            23096          5368           63809          7.9457499e-12
       199   840.71779          94061   380            366            23748          5531           64036          8.1577685e-12
       200   854.41154          94992   379            363            24350          5681           64219          8.3573433e-12
       201   867.95124          95942   378            363            24957          5820           64424          8.5600753e-12
       202   881.57212          96906   378            362            25598          5955           64613          8.7596139e-12
       203   895.2921           97864   377            359            26241          6097           64790          8.9623126e-12
       204   909.12127          98843   377            358            26887          6249           64972          9.1498125e-12
       205   923.02377          99842   377            355            27601          6386           65123          9.3855791e-12
       206   937.01416         100790   376            351            28236          6548           65279          9.5705453e-12
       207   951.1251          101741   376            345            28910          6676           65434          9.7712163e-12
       208   965.29634         102667   373            344            29522          6854           65574          9.9749696e-12
       209   979.51166         103605   372            340            30151          7041           65701          1.0147815e-11
       210   994.05875         104572   371            337            30781          7255           65828          1.0354838e-11
       211   1008.4687         105389   368            336            31302          7452           65931          1.0517772e-11
       212   1022.9611         106279   367            333            31871          7674           66034          1.0669836e-11
       213   1037.5134         107172   363            329            32383          7945           66152          1.0850574e-11
       214   1052.1596         108040   359            326            32883          8225           66247          1.0990828e-11
       215   1066.9057         108880   358            324            33370          8492           66336          1.1143149e-11
       216   1081.7471         109614   354            315            33731          8785           66429          1.126826e-11 
       217   1096.6906         110324   352            313            34098          9061           66500          1.137182e-11 
       218   1111.6924         111143   349            310            34544          9363           66577          1.1493716e-11
       219   1126.7901         111772   344            298            34812          9680           66638          1.1572224e-11
       220   1142.2177         112522   337            289            35204          9990           66702          1.1666557e-11
       221   1157.5696         113134   333            282            35487          10274          66758          1.1741771e-11
       222   1172.8919         113747   329            276            35818          10515          66809          1.1825645e-11
       223   1188.2659         114448   325            267            36186          10810          66860          1.19007e-11  
       224   1203.7332         115054   319            263            36487          11058          66927          1.1948481e-11
       225   1219.2555         115652   314            256            36795          11317          66970          1.1988129e-11
       226   1234.7944         116223   305            246            37090          11559          67023          1.2053049e-11
       227   1250.4555         116778   301            239            37351          11829          67058          1.2085592e-11
       228   1266.1789         117400   289            231            37714          12071          67095          1.2123678e-11
       229   1282.0311         117937   284            216            37977          12318          67142          1.2139852e-11
       230   1298.2016         118446   273            210            38232          12548          67183          1.2174249e-11
       231   1314.2152         118938   269            201            38408          12837          67223          1.220767e-11 
       232   1330.2405         119410   262            196            38590          13106          67256          1.2208248e-11
       233   1346.3622         119929   250            189            38799          13407          67284          1.2236078e-11
       234   1362.5775         120461   245            182            39030          13693          67311          1.2252259e-11
       235   1378.8698         120931   241            172            39182          13982          67354          1.2240946e-11
       236   1395.202          121331   223            163            39209          14343          67393          1.2249765e-11
       237   1411.5884         121808   216            157            39322          14682          67431          1.2237319e-11
       238   1428.0211         122222   209            152            39375          15016          67470          1.2240701e-11
       239   1444.5102         122724   196            144            39531          15356          67497          1.2224434e-11
       240   1461.3811         123114   187            136            39542          15716          67533          1.2204049e-11
       241   1477.9176         123534   180            129            39596          16067          67562          1.2202367e-11
       242   1494.5709         124032   174            123            39756          16385          67594          1.2204876e-11
       243   1511.2743         124470   168            117            39848          16711          67626          1.2222108e-11
       244   1528.0208         124895   163            115            39920          17036          67661          1.221508e-11 
       245   1544.8379         125281   160            111            39958          17354          67698          1.2200732e-11
       246   1561.7274         125722   155            103            40006          17731          67727          1.2198785e-11
       247   1578.6426         126157   151            99             40074          18068          67765          1.2205187e-11
       248   1595.62           126558   148            98             40127          18390          67795          1.2184908e-11
       249   1612.6539         126921   143            95             40137          18711          67835          1.2168176e-11
       250   1630.0702         127390   138            92             40238          19041          67881          1.2176847e-11
       251   1647.2507         127795   134            86             40287          19371          67917          1.2181981e-11
       252   1664.4629         128133   128            83             40292          19685          67945          1.2156326e-11
       253   1681.7132         128564   124            82             40374          20006          67978          1.2139167e-11
       254   1698.9705         128994   119            78             40470          20313          68014          1.2151007e-11
       255   1716.3193         129297   113            76             40443          20613          68052          1.2112224e-11
       256   1733.7362         129666   112            71             40440          20950          68093          1.2136974e-11
       257   1751.2347         130066   110            70             40457          21296          68133          1.2111689e-11
       258   1768.826          130512   109            68             40556          21615          68164          1.2111069e-11
       259   1786.5145         130965   104            65             40617          21969          68210          1.2117484e-11
       260   1804.5548         131352   101            63             40645          22305          68238          1.2131342e-11
       261   1822.3889         131662   97             61             40552          22672          68280          1.212745e-11 
       262   1840.3168         132036   93             58             40557          23014          68314          1.2101887e-11
       263   1858.3007         132555   90             56             40690          23363          68356          1.2116003e-11
       264   1876.3626         132887   86             54             40597          23760          68390          1.2116232e-11
       265   1894.4481         133265   85             53             40573          24131          68423          1.2108204e-11
       266   1912.5751         133665   81             51             40593          24484          68456          1.2137515e-11
       267   1930.8269         134016   78             49             40489          24906          68494          1.2131251e-11
       268   1949.1396         134413   74             47             40468          25292          68532          1.2131588e-11
       269   1967.5116         134757   72             44             40362          25716          68563          1.2110201e-11
       270   1986.2685         135195   66             43             40310          26179          68597          1.2135307e-11
       271   2004.8177         135563   63             43             40191          26629          68637          1.2136994e-11
       272   2023.4378         135931   63             41             40085          27076          68666          1.2128927e-11
       273   2042.1312         136144   61             41             39830          27510          68702          1.21048e-11  
       274   2060.8994         136616   58             39             39788          27993          68738          1.2113555e-11
       275   2079.7216         137036   57             38             39660          28515          68766          1.2125341e-11
       276   2098.6575         137393   53             38             39531          28965          68806          1.2120159e-11
       277   2117.6392         137718   53             36             39320          29472          68837          1.2113669e-11
       278   2136.6493         138118   48             36             39215          29951          68868          1.2140072e-11
       279   2155.7414         138442   44             36             39002          30457          68903          1.2152202e-11
       280   2175.1653         138833   44             36             38859          30963          68931          1.2152576e-11
       281   2194.3316         139243   43             36             38764          31432          68968          1.2164323e-11
       282   2213.5874         139574   42             36             38595          31907          68994          1.2174908e-11
       283   2232.8759         139917   41             34             38476          32340          69026          1.2188715e-11
       284   2252.272          140287   41             34             38333          32820          69059          1.2195337e-11
       285   2271.7353         140592   40             33             38130          33302          69087          1.2202019e-11
       286   2291.278          140929   40             32             37970          33766          69121          1.2190189e-11
       287   2310.9            141345   39             31             37895          34230          69150          1.2200995e-11
       288   2330.6313         141627   39             28             37680          34697          69183          1.2199728e-11
       289   2350.3369         141919   39             28             37525          35115          69212          1.2220987e-11
       290   2370.4072         142280   38             28             37385          35587          69242          1.2208086e-11
       291   2390.2685         142654   36             28             37307          36006          69277          1.2204021e-11
       292   2410.0974         142985   35             27             37196          36422          69305          1.2233872e-11
       293   2430.0238         143405   34             25             37180          36831          69335          1.2256474e-11
       294   2450.0208         143727   33             25             37072          37235          69362          1.2264429e-11
       295   2470.0846         144033   33             25             36991          37593          69391          1.2273298e-11
       296   2490.1322         144372   33             25             36931          37964          69419          1.2263931e-11
       297   2510.3392         144700   33             24             36834          38362          69447          1.2289028e-11
       298   2530.5559         144945   32             24             36673          38740          69476          1.2271965e-11
       299   2550.8995         145326   30             24             36666          39104          69502          1.2287193e-11
       300   2571.6292         145659   30             23             36605          39470          69531          1.2283317e-11
       301   2592.0821         146048   30             22             36600          39838          69558          1.2312421e-11
       302   2612.3818         146319   30             22             36483          40201          69583          1.2330907e-11
       303   2632.7982         146641   30             22             36392          40584          69613          1.2327101e-11
       304   2653.4298         147070   30             21             36445          40939          69635          1.2354565e-11
       305   2674.1115         147387   30             21             36367          41304          69665          1.23446e-11  
       306   2694.6774         147659   30             21             36288          41631          69689          1.2356885e-11
       307   2715.3534         148030   30             21             36272          41990          69717          1.2383832e-11
       308   2736.0474         148337   30             21             36224          42317          69745          1.2386541e-11
       309   2756.8207         148623   30             21             36137          42662          69773          1.2398794e-11
       310   2777.9473         149060   30             21             36226          42985          69798          1.2411546e-11
       311   2798.9151         149409   30             21             36191          43340          69827          1.2417347e-11
       312   2820.5674         149670   30             21             36093          43672          69854          1.2417992e-11
       313   2841.6203         149946   30             21             36015          43998          69882          1.2430237e-11
       314   2862.6411         150292   30             21             36012          44324          69905          1.2434177e-11
       315   2883.8214         150635   30             21             36014          44633          69937          1.245739e-11 
       316   2905.1214         150948   30             21             35962          44975          69960          1.2452964e-11
       317   2926.3885         151300   30             21             35990          45271          69988          1.2494594e-11
       318   2947.7327         151632   30             21             35971          45593          70017          1.2489073e-11
       319   2969.2892         151972   29             21             35976          45904          70042          1.2510076e-11
       320   2991.1192         152272   29             21             35967          46188          70067          1.2527786e-11
Loop time of 2991.12 on 16 procs for 320 steps with 152272 atoms

97.9% CPU use with 16 MPI tasks x 1 OpenMP threads

MPI task timing breakdown:
Section |  min time  |  avg time  |  max time  |%varavg| %total
---------------------------------------------------------------
Pair    | 775.76     | 860.51     | 1112.8     | 306.4 | 28.77
Neigh   | 499.18     | 584.36     | 885.64     | 491.6 | 19.54
Comm    | 324.55     | 397.23     | 466.2      | 247.6 | 13.28
Output  | 38.049     | 38.049     | 38.05      |   0.0 |  1.27
Modify  | 477.76     | 1096.8     | 1317.4     | 716.6 | 36.67
Other   |            | 14.15      |            |       |  0.47

Nlocal:           9517 ave       14474 max        8090 min
Histogram: 9 2 1 2 0 0 0 0 0 2
Nghost:        7368.94 ave        9853 max        6264 min
Histogram: 6 3 1 2 0 0 2 0 0 2
Neighs:        92522.5 ave      108695 max       86038 min
Histogram: 4 6 1 1 0 2 0 1 0 1

Total # of neighbors = 1480360
Ave neighs/atom = 9.7218136
Neighbor list builds = 28057
Dangerous builds = 27737

Total wall time: 0:50:20
