LAMMPS (23 Jun 2022 - Update 4)
  using 1 OpenMP thread(s) per MPI task
package omp 0
using multi-threaded neighbor list subroutines
#-----------------------------------------------------------------------------#
#                NUFEB Simulation: Heterotrophic Biofilm Growth               #
#-----------------------------------------------------------------------------#


#-----------------------------System Settings---------------------------------#

units si                                    # using si units (m, s, kg)
atom_style      coccus                      # using nufeb coccus atom style
atom_modify     map array sort 10 0         # map array - find atoms using indices
		                            # sort every 10

boundary        pp pp ff                    # periodic boundaries in x and y
                                            # fixed boundary in z

newton          off                         # forces between local and ghost
                                            # atoms are computed in each
					     # processor without communication

processors      * * 1                       # processor grid

comm_modify     vel yes                     # communicate velocities for ghost atoms

read_data       atom_ch.in	             # read atom.in file which defines domain size
Reading data file ...
  orthogonal box = (0 0 0) to (6e-05 6e-05 6e-05)
  4 by 4 by 1 MPI processor grid
  reading atoms ...
  150 atoms
  read_data CPU = 0.012 seconds
                                            # and initial atoms


#--------------------Microbes and Functional Groups-------------------------#

group           CROSS1   type 1               # assign type 1,2 atoms to CROSS group
50 atoms in group CROSS1
group           CROSS2   type 2
50 atoms in group CROSS2
group		CHEATER  type 3
50 atoms in group CHEATER
group           dead     type 4
0 atoms in group dead
group		EPS	 type 5
0 atoms in group EPS

neighbor        5e-7 bin                   # setting neighbour skin distance and style

neigh_modify    check yes                  # rebuild neighbour list if any atom
                                           # had moved more than half the skin distance


#--------------------------Mesh Grid and Substrates--------------------------#

# defining grid sytle, substrate names, and grid size
grid_style      nufeb/chemostat 3 sub metab1 metab2 5e-6

# set diffusion boundary conditions and initial concentrations (liquid:kg/m3)
grid_modify     set sub      pp pp nd  1.8e-4
No /omp style for force computation currently active
grid_modify     set metab1   pp pp nd  1e-4
No /omp style for force computation currently active
grid_modify     set metab2   pp pp nd  1e-4
No /omp style for force computation currently active


#--------------------------Biological Processes-------------------------------#

# heterotrophs growth
fix growth_cross1 CROSS1 nufeb/growth/cross1 sub 3.5e-5 metab2 4e-3 metab1 growth 0.009 yield 0.6 decay 2.6e-6 metab1_exp 20 epsyield 0.12 epsdens 30

fix growth_cross2 CROSS2 nufeb/growth/cross2 sub 3.5e-5 metab1 4e-3 metab2 growth 0.009 yield 0.6 decay 2.6e-6 metab2_exp 20 epsyield 0.12 epsdens 30

fix growth_cheater CHEATER nufeb/growth/cheater sub 3.5e-5 metab1 1e-3 metab2 1e-3 growth 0.009 yield 0.6 decay 2.6e-6

# heterotrophs division, division diameter: 1.36e-6
fix div1 CROSS1 nufeb/division/coccus 1.36e-6 392
fix div2 CROSS2 nufeb/division/coccus 1.36e-6 1262
fix div3 CHEATER nufeb/division/coccus 1.36e-6 2710

fix death1 CROSS1 nufeb/death/diameter dead 5.43e-7
fix death2 CROSS2 nufeb/death/diameter dead 5.43e-7
fix death3 CHEATER nufeb/death/diameter dead 5.43e-7

# EPS secretion from heterotrophs
fix eps1 CROSS1 nufeb/eps_secretion 5 EPS 1.1 30 4736
fix eps2 CROSS2 nufeb/eps_secretion 5 EPS 1.1 30 7340

#---------------------------Physical Processes--------------------------------#

pair_style  gran/hooke/history 1e-4 NULL 1e-5 NULL 0.0 0    # pairwise interaction
pair_coeff  * *                                             # between atoms

# pairwise interaction between z-wall and atoms
fix wall all wall/gran hooke/history 1e-3 NULL 1e-4 NULL 0 0 zplane 0.0 1e-04

fix vis all viscous 1e-5                                    # viscous damping force

fix grav all gravity 9.81 vector 0.0 0.0 -1.0

fix nve all nve/limit 1e-7                                  # NVE integration with
                                                            # maximum distance limit


#---------------------------Post-Physical Processes---------------------------#

fix coeff_sub all nufeb/diffusion_coeff sub ratio 0.8       # defining diffusion coeff in the biofilm
fix coeff_metab1 all nufeb/diffusion_coeff metab1 ratio 0.8    # region is 80% of the value in liquid
fix coeff_metab2 all nufeb/diffusion_coeff metab2 ratio 0.8

#---------------------------Chemical Processes---------------------------------#

fix diff_sub all nufeb/diffusion_reaction sub 1e-9        # diffusion reaction for updating
fix diff_metab1 all nufeb/diffusion_reaction metab1 4e-9     # distribusion of substrate concentration
fix diff_metab2 all nufeb/diffusion_reaction metab2 4e-9

#--------------------------Computations and Outputs----------------------------#

variable mass equal "mass(all)"                             # total mass
variable ncross1 equal "count(CROSS1)"                      # total # of CROSS1
variable ncross2 equal "count(CROSS2)"                      # total # of CROSS2
variable ncheater equal "count(CHEATER)"
variable ndead equal "count(dead)"
variable neps equal "count(EPS)"

shell mkdir vtk_EPS_ch                                            # dump vtk files to /vtk folder
dump du1 all vtk 10 vtk_EPS_ch/dump*.vtu id type diameter         # require build NUFEB with vtk option
dump du2 all grid/vtk 10 vtk_EPS_ch/dump_%_*.vti con rea den gro

#dump du3 all movie 10 movie.avi type diameter view 80 60    # dump video
#dump_modify du3 acolor 1 blue acolor 2 lightgrey framerate 10


                                                            # dump hdf5 files to /hdf5 folder
#shell mkdir hdf5                                           # require build NUFEB with hdf5 option
#dump du3 all nufeb/hdf5 10 dump.h5 id type x y z vx vy vz fx fy fz radius conc reac

thermo_style custom step cpu atoms v_ncross1 v_ncross2 v_ncheater v_ndead v_neps v_mass     # screen and log outputs
thermo 1
thermo_modify   lost ignore

#-----------------------------------Run----------------------------------------#

# issue run command, define timesteps for physical (pairdt) and chemical (diffdt) processes
run_style nufeb diffdt 1e-4 difftol 1e-6 pairdt 1e-2 pairtol 1 pairmax 1000 diffmax 5000

timestep 12000                                               # define biological timesteps (1000s)

run 320                                                    # growing biofilm for 900x1000s
Generated 0 of 6 mixed pair_coeff terms from geometric mixing rule
Last active /omp style is pair_style gran/hooke/history/omp
Neighbor list info ...
  update every 1 steps, delay 10 steps, check yes
  max neighbors/atom: 2000, page size: 100000
  master list distance cutoff = 2.49e-06
  ghost atom cutoff = 2.49e-06
  binsize = 1.245e-06, bins = 49 49 49
  1 neighbor lists, perpetual/occasional/extra = 1 0 0
  (1) pair gran/hooke/history/omp, perpetual
      attributes: half, newton off, size, history, omp
      pair build: half/size/bin/newtoff/omp
      stencil: full/bin/3d
      bin: standard
Per MPI rank memory allocation (min/avg/max) = 11.02 | 11.02 | 11.02 Mbytes
   Step          CPU          Atoms      v_ncross1      v_ncross2      v_ncheater      v_ndead         v_neps         v_mass    
         0   0                    150   50             50             50             0              0              1.3295396e-13
         1   0.38631021           432   90             85             86             0              171            1.7271106e-13
         2   0.766578             797   120            126            138            0              413            1.9556351e-13
         3   1.1030225           1120   130            144            176            0              670            2.1439479e-13
         4   1.4211739           1436   137            152            205            0              942            2.3223266e-13
         5   1.6645664           1752   140            163            217            0              1232           2.4984863e-13
         6   1.8464748           2070   144            167            242            0              1517           2.6702556e-13
         7   1.989727            2410   153            177            256            0              1824           2.8406171e-13
         8   2.1361703           2757   163            186            276            0              2132           3.006606e-13 
         9   2.2696957           3128   169            196            295            0              2468           3.1709474e-13
        10   2.4605665           3491   172            204            311            0              2804           3.3305698e-13
        11   2.5718854           3866   176            211            332            0              3147           3.4814102e-13
        12   2.6781307           4246   184            216            352            0              3494           3.629903e-13 
        13   2.7725514           4637   185            225            369            0              3858           3.7757294e-13
        14   2.8823686           5024   191            230            379            0              4224           3.9174804e-13
        15   2.9699688           5411   193            238            394            0              4586           4.0531862e-13
        16   3.0920886           5817   199            243            415            0              4960           4.1860781e-13
        17   3.1916055           6205   202            247            434            0              5322           4.3139649e-13
        18   3.2993168           6612   213            251            448            0              5700           4.434113e-13 
        19   3.411976            7016   219            256            463            0              6078           4.5532635e-13
        20   6.2565686           7427   224            261            476            0              6466           4.6683344e-13
        21   6.3575599           7827   230            267            489            0              6841           4.7815487e-13
        22   6.4613204           8231   233            271            500            0              7227           4.8931396e-13
        23   6.5662462           8634   237            274            515            0              7608           5.000061e-13 
        24   6.6473625           9047   245            279            534            0              7989           5.1036615e-13
        25   6.7731493           9463   247            279            544            0              8393           5.2090931e-13
        26   6.8912545           9875   248            285            561            0              8781           5.3109223e-13
        27   7.0222999          10257   252            285            579            0              9141           5.4118094e-13
        28   7.1832225          10650   255            286            591            0              9518           5.5138008e-13
        29   7.3521981          11064   257            291            611            0              9905           5.6145559e-13
        30   7.9463664          11460   259            293            624            0              10284          5.7168944e-13
        31   8.1197109          11858   262            298            645            0              10653          5.8202314e-13
        32   8.300718           12243   267            300            659            0              11017          5.924559e-13 
        33   8.479364           12662   271            301            680            0              11410          6.0314653e-13
        34   8.697464           13040   273            306            707            0              11754          6.136014e-13 
        35   8.8884201          13447   277            309            717            0              12144          6.240867e-13 
        36   9.0946568          13837   278            309            735            0              12515          6.3403741e-13
        37   9.2995895          14223   279            310            754            0              12880          6.4366797e-13
        38   9.6193733          14616   282            312            770            0              13252          6.5315278e-13
        39   9.9472273          15026   285            314            791            0              13636          6.6232577e-13
        40   10.387906          15409   287            316            807            0              13999          6.7101635e-13
        41   10.850188          15800   291            317            825            0              14367          6.7960836e-13
        42   11.385107          16198   293            318            849            0              14738          6.8800028e-13
        43   12.113989          16617   297            322            866            0              15132          6.9657249e-13
        44   12.958998          17013   299            323            887            0              15504          7.0534269e-13
        45   13.809518          17404   302            326            913            0              15863          7.1457147e-13
        46   14.889868          17820   305            330            930            0              16255          7.2403171e-13
        47   15.911935          18193   306            332            955            0              16600          7.3395901e-13
        48   16.961748          18604   307            332            978            0              16987          7.4430246e-13
        49   18.024154          18995   308            332            1002           0              17353          7.5447387e-13
        50   19.133663          19386   310            334            1028           0              17714          7.6447933e-13
        51   20.190909          19793   312            336            1048           0              18097          7.7437498e-13
        52   21.22163           20162   314            340            1068           0              18440          7.8372605e-13
        53   22.286503          20590   316            341            1093           0              18840          7.9286774e-13
        54   23.360744          20986   322            344            1121           0              19199          8.0153215e-13
        55   24.493254          21388   326            344            1139           0              19579          8.0978875e-13
        56   25.615444          21793   329            346            1158           1              19959          8.1776154e-13
        57   26.869418          22204   332            347            1172           4              20349          8.258202e-13 
        58   28.130231          22600   333            347            1198           4              20718          8.348676e-13 
        59   29.496065          23015   334            349            1220           7              21105          8.4407348e-13
        60   31.008927          23428   335            349            1252           10             21482          8.5423703e-13
        61   32.42925           23855   337            352            1279           15             21872          8.6605207e-13
        62   33.900017          24258   338            353            1318           16             22233          8.7826282e-13
        63   35.340501          24661   338            353            1355           20             22595          8.9131847e-13
        64   36.772541          25077   339            356            1392           21             22969          9.046768e-13 
        65   38.231365          25506   340            358            1426           25             23357          9.1820112e-13
        66   39.724303          25893   340            359            1470           27             23697          9.3156117e-13
        67   41.228384          26321   341            360            1508           28             24084          9.454209e-13 
        68   42.725916          26735   342            360            1562           33             24438          9.5924837e-13
        69   44.26181           27140   342            361            1596           37             24804          9.728639e-13 
        70   45.9369            27532   343            362            1629           44             25154          9.8657455e-13
        71   47.589953          27956   343            363            1672           51             25527          1.0009365e-12
        72   49.372394          28368   344            363            1722           59             25880          1.0155591e-12
        73   51.175684          28781   345            363            1759           68             26246          1.03145e-12  
        74   53.01359           29165   348            363            1809           73             26572          1.0479295e-12
        75   54.883565          29585   349            363            1868           78             26927          1.065699e-12 
        76   56.796312          30003   350            363            1928           87             27275          1.084298e-12 
        77   58.731286          30417   350            364            1979           96             27628          1.103799e-12 
        78   60.671855          30812   350            364            2036           108            27954          1.1238126e-12
        79   62.606386          31217   351            364            2095           116            28291          1.1441018e-12
        80   64.615322          31626   353            364            2159           125            28625          1.164096e-12 
        81   66.585242          32050   354            365            2230           133            28968          1.1836139e-12
        82   68.58697           32456   355            365            2291           140            29305          1.2028735e-12
        83   70.625866          32862   356            365            2346           147            29648          1.2218355e-12
        84   72.791323          33270   356            367            2407           164            29976          1.240476e-12 
        85   75.011652          33670   356            367            2472           177            30298          1.259421e-12 
        86   77.259819          34095   357            367            2533           189            30649          1.2795662e-12
        87   79.566264          34485   358            367            2597           194            30969          1.2999929e-12
        88   81.899458          34888   359            367            2663           208            31291          1.3213491e-12
        89   84.272914          35290   359            367            2736           211            31617          1.343081e-12 
        90   86.73042           35689   359            368            2811           219            31932          1.3653207e-12
        91   89.153887          36100   359            368            2872           234            32267          1.3873505e-12
        92   91.593461          36478   360            369            2935           244            32570          1.4090176e-12
        93   94.07125           36940   361            370            3027           250            32932          1.4307402e-12
        94   96.604393          37306   361            370            3086           262            33227          1.452039e-12 
        95   99.189498          37730   361            370            3170           265            33564          1.4735279e-12
        96   101.83791          38135   361            370            3250           269            33885          1.4950382e-12
        97   104.52386          38530   361            371            3326           278            34194          1.5177201e-12
        98   107.27511          38945   361            371            3396           295            34522          1.540459e-12 
        99   110.07329          39339   361            371            3490           299            34818          1.5638184e-12
       100   113.02942          39772   361            371            3579           307            35154          1.588473e-12 
       101   115.94331          40177   363            371            3672           311            35460          1.613809e-12 
       102   118.89257          40582   363            371            3759           320            35769          1.6397772e-12
       103   121.88446          41005   363            371            3855           323            36093          1.6658579e-12
       104   124.90941          41378   363            371            3929           336            36379          1.6915846e-12
       105   127.97811          41803   363            371            4027           347            36695          1.7171489e-12
       106   131.1184           42242   363            371            4128           363            37017          1.7424042e-12
       107   134.32662          42627   363            371            4215           374            37304          1.7673081e-12
       108   137.62221          43060   363            371            4315           389            37622          1.7933297e-12
       109   140.94937          43451   363            371            4383           411            37923          1.8203796e-12
       110   144.46434          43876   363            371            4494           429            38219          1.8482133e-12
       111   147.90357          44278   363            371            4564           457            38523          1.8775041e-12
       112   151.40885          44724   362            371            4674           487            38830          1.9079656e-12
       113   154.98962          45126   362            371            4745           523            39125          1.9389617e-12
       114   158.6048           45543   362            371            4843           559            39408          1.9708369e-12
       115   162.26771          45972   362            371            4930           606            39703          2.0029778e-12
       116   166.00478          46414   362            371            5044           636            40001          2.0353603e-12
       117   169.81328          46840   362            371            5128           675            40304          2.0677893e-12
       118   173.68092          47268   362            371            5235           708            40592          2.1010303e-12
       119   177.62143          47678   362            371            5339           743            40863          2.1346773e-12
       120   181.70686          48112   361            371            5409           798            41173          2.1697144e-12
       121   185.75098          48532   361            371            5511           839            41450          2.206103e-12 
       122   189.85498          48982   361            371            5623           890            41737          2.2440057e-12
       123   194.07523          49410   361            371            5735           936            42007          2.2830382e-12
       124   198.32515          49849   361            371            5828           997            42292          2.3225685e-12
       125   202.64203          50310   361            371            5964           1037           42577          2.3631492e-12
       126   207.0461           50763   361            371            6094           1079           42858          2.403678e-12 
       127   211.52415          51185   361            371            6194           1130           43129          2.4442954e-12
       128   216.08041          51632   361            370            6292           1197           43412          2.4853644e-12
       129   220.72921          52098   361            370            6439           1246           43682          2.5286903e-12
       130   225.57816          52564   361            370            6580           1291           43962          2.5741225e-12
       131   230.36428          53012   361            370            6714           1331           44236          2.6211395e-12
       132   235.20571          53456   360            370            6871           1370           44485          2.669978e-12 
       133   240.14668          53943   360            370            7033           1408           44772          2.7200744e-12
       134   245.18908          54428   359            370            7219           1434           45046          2.7716697e-12
       135   250.29343          54886   359            370            7398           1474           45285          2.8239624e-12
       136   255.48507          55406   359            370            7572           1521           45584          2.8773439e-12
       137   260.77417          55869   359            370            7747           1558           45835          2.9325047e-12
       138   266.16473          56372   359            370            7948           1599           46096          2.9914813e-12
       139   271.66435          56897   359            370            8156           1643           46369          3.0535785e-12
       140   277.41255          57411   359            370            8370           1689           46623          3.1190989e-12
       141   283.14234          57937   359            370            8596           1728           46884          3.1889473e-12
       142   288.95969          58501   359            370            8852           1771           47149          3.2614565e-12
       143   294.90677          59025   359            370            9095           1817           47384          3.336902e-12 
       144   300.97701          59569   358            370            9322           1861           47658          3.4166388e-12
       145   307.14676          60120   358            369            9571           1909           47913          3.5002577e-12
       146   313.41835          60709   358            368            9875           1953           48155          3.5895483e-12
       147   319.81599          61319   358            367            10175          1990           48429          3.6858483e-12
       148   326.3726           61902   358            367            10456          2053           48668          3.7894198e-12
       149   333.08197          62523   358            366            10793          2098           48908          3.9022091e-12
       150   340.11334          63221   357            366            11169          2147           49182          4.0240006e-12
       151   347.12438          63874   356            366            11520          2203           49429          4.1551561e-12
       152   354.36045          64590   356            366            11923          2261           49684          4.2938879e-12
       153   361.74167          65291   354            366            12329          2311           49931          4.4323905e-12
       154   369.25433          66013   354            366            12738          2369           50186          4.571894e-12 
       155   376.91676          66722   353            366            13133          2430           50440          4.712197e-12 
       156   384.70538          67446   353            366            13582          2465           50680          4.8472043e-12
       157   392.6739           68176   353            366            14019          2517           50921          4.990104e-12 
       158   400.81183          68940   352            366            14462          2577           51183          5.1360294e-12
       159   409.13786          69708   352            366            14922          2646           51422          5.2947767e-12
       160   417.71154          70453   351            365            15364          2701           51672          5.4388188e-12
       161   426.23018          71216   351            364            15835          2760           51906          5.591715e-12 
       162   434.98381          71969   351            363            16288          2826           52141          5.7422579e-12
       163   443.79493          72773   351            363            16798          2872           52389          5.8898328e-12
       164   452.70608          73529   351            363            17283          2911           52621          6.0473081e-12
       165   461.70657          74341   351            363            17801          2974           52852          6.2116848e-12
       166   470.79109          75207   351            363            18393          3044           53056          6.396826e-12 
       167   479.93326          76120   351            363            18993          3114           53299          6.5867369e-12
       168   489.18128          76967   350            362            19556          3187           53512          6.7556153e-12
       169   498.47622          77782   350            362            20090          3266           53714          6.9329499e-12
       170   508.03502          78681   350            362            20688          3351           53930          7.1112937e-12
       171   517.51402          79592   350            362            21324          3407           54149          7.3107893e-12
       172   527.03518          80461   350            362            21947          3488           54314          7.5017776e-12
       173   536.64005          81428   349            361            22623          3567           54528          7.712782e-12 
       174   546.29312          82416   348            361            23323          3662           54722          7.9459978e-12
       175   556.0002           83362   348            361            23988          3782           54883          8.1377966e-12
       176   565.76454          84214   348            361            24588          3888           55029          8.3530835e-12
       177   575.60186          85186   348            361            25241          4031           55205          8.5550822e-12
       178   585.50845          86192   348            361            25925          4171           55387          8.774971e-12 
       179   595.47745          87147   348            361            26589          4328           55521          9.0016218e-12
       180   605.70873          88049   348            361            27188          4494           55658          9.2037444e-12
       181   615.82223          88979   348            361            27815          4680           55775          9.4003015e-12
       182   625.98288          90014   348            359            28508          4881           55918          9.6297781e-12
       183   636.16638          90933   346            358            29082          5105           56042          9.8276949e-12
       184   646.3961           91872   346            357            29640          5355           56174          1.0031004e-11
       185   656.68478          92806   346            355            30202          5625           56278          1.0236909e-11
       186   667.02377          93656   345            352            30694          5906           56359          1.0415191e-11
       187   677.38214          94508   345            350            31193          6194           56426          1.0603818e-11
       188   687.76612          95345   345            348            31652          6482           56518          1.0746766e-11
       189   698.14387          96236   345            345            32149          6777           56620          1.0900019e-11
       190   708.77361          97104   345            345            32662          7039           56713          1.1049047e-11
       191   719.23323          97817   345            344            33032          7317           56779          1.1188534e-11
       192   729.76388          98527   344            344            33407          7586           56846          1.1308298e-11
       193   740.2928           99248   344            342            33807          7845           56910          1.1402611e-11
       194   750.88372         100070   344            338            34301          8112           56975          1.1519961e-11
       195   761.51783         100715   344            331            34651          8352           57037          1.1583537e-11
       196   772.17485         101349   343            327            35019          8571           57089          1.1676533e-11
       197   782.8572          101997   341            325            35437          8748           57146          1.1743948e-11
       198   793.57942         102634   339            325            35830          8942           57198          1.1812444e-11
       199   804.35823         103264   338            316            36274          9090           57246          1.1870606e-11
       200   815.43734         103859   333            312            36655          9259           57300          1.1914325e-11
       201   826.34337         104443   330            307            37074          9396           57336          1.1950107e-11
       202   837.25511         104959   328            297            37374          9578           57382          1.1999242e-11
       203   848.21941         105516   325            287            37723          9738           57443          1.2019309e-11
       204   859.21412         106026   322            276            38015          9931           57482          1.205477e-11 
       205   870.26997         106652   319            269            38392          10152          57520          1.207969e-11 
       206   881.29499         107147   317            259            38603          10399          57569          1.2094561e-11
       207   892.39395         107600   311            256            38759          10661          57613          1.2082283e-11
       208   903.53974         108110   305            252            38970          10933          57650          1.2114929e-11
       209   914.72169         108591   295            242            39119          11249          57686          1.2104824e-11
       210   926.2142          109093   291            234            39266          11575          57727          1.2113651e-11
       211   937.50288         109518   287            220            39308          11929          57774          1.2091271e-11
       212   948.8214          109964   285            210            39392          12265          57812          1.2081502e-11
       213   960.17338         110411   276            195            39447          12650          57843          1.2108763e-11
       214   971.57775         110954   268            186            39578          13036          57886          1.2107961e-11
       215   983.02793         111341   251            178            39569          13417          57926          1.2080872e-11
       216   994.50467         111812   240            160            39669          13776          57967          1.2081103e-11
       217   1006.0471         112256   235            156            39735          14124          58006          1.208394e-11 
       218   1017.6312         112672   219            147            39772          14488          58046          1.207874e-11 
       219   1029.2566         113073   204            133            39801          14848          58087          1.2080796e-11
       220   1041.1778         113510   193            125            39897          15165          58130          1.2070808e-11
       221   1052.8924         113940   186            120            39968          15496          58170          1.2038391e-11
       222   1064.6514         114319   176            116            40037          15787          58203          1.205026e-11 
       223   1076.4622         114716   162            101            40127          16083          58243          1.2028573e-11
       224   1088.3262         115249   154            93             40346          16372          58284          1.2039918e-11
       225   1100.2393         115608   145            87             40386          16660          58330          1.2025161e-11
       226   1112.1975         116096   133            76             40527          16997          58363          1.2049891e-11
       227   1124.1753         116418   128            72             40514          17307          58397          1.2022457e-11
       228   1136.204          116822   120            67             40597          17604          58434          1.2033954e-11
       229   1148.2788         117243   111            64             40688          17909          58471          1.2014316e-11
       230   1160.713          117707   105            60             40819          18209          58514          1.2014206e-11
       231   1172.9001         118146   101            56             40883          18555          58551          1.2014711e-11
       232   1185.1687         118413   96             52             40815          18873          58577          1.199924e-11 
       233   1197.4456         118763   89             51             40817          19200          58606          1.2001583e-11
       234   1209.7848         119236   83             45             40898          19566          58644          1.1993931e-11
       235   1222.1558         119670   76             44             40908          19960          58682          1.1986999e-11
       236   1234.5838         120000   70             43             40864          20310          58713          1.1991085e-11
       237   1247.0096         120337   67             38             40830          20663          58739          1.1975545e-11
       238   1259.4708         120717   61             36             40813          21036          58771          1.1971162e-11
       239   1271.9764         121180   55             34             40897          21395          58799          1.1992018e-11
       240   1284.7941         121578   50             33             40898          21770          58827          1.1982844e-11
       241   1297.3703         121970   47             31             40857          22182          58853          1.1989759e-11
       242   1310.033          122260   46             28             40706          22596          58884          1.1959688e-11
       243   1322.6871         122642   44             25             40656          23007          58910          1.1975445e-11
       244   1335.3838         122971   42             25             40534          23437          58933          1.196354e-11 
       245   1348.12           123334   42             25             40393          23909          58965          1.1980678e-11
       246   1360.9194         123773   41             24             40340          24381          58987          1.1991068e-11
       247   1373.7432         124116   39             24             40189          24848          59016          1.1979655e-11
       248   1386.6043         124408   38             22             39985          25325          59038          1.1951407e-11
       249   1399.5166         124784   33             22             39849          25814          59066          1.1977712e-11
       250   1412.7552         125155   33             22             39701          26310          59089          1.1989191e-11
       251   1425.8767         125473   33             22             39481          26822          59115          1.1990548e-11
       252   1439.0592         125840   33             22             39326          27316          59143          1.1988126e-11
       253   1452.2698         126267   32             20             39243          27805          59167          1.2015109e-11
       254   1465.492          126602   31             20             39076          28282          59193          1.2028489e-11
       255   1478.7679         126980   31             20             38970          28744          59215          1.2031823e-11
       256   1492.0851         127260   30             20             38733          29235          59242          1.2011151e-11
       257   1505.4507         127619   30             20             38587          29718          59264          1.2016298e-11
       258   1518.8845         127917   30             19             38392          30188          59288          1.2026144e-11
       259   1532.3204         128312   29             19             38273          30678          59313          1.2026632e-11
       260   1546.1303         128686   29             19             38164          31136          59338          1.2060106e-11
       261   1559.6739         128980   29             19             38004          31567          59361          1.2044528e-11
       262   1573.3374         129399   28             18             37908          32057          59388          1.2067254e-11
       263   1586.9588         129661   25             17             37660          32553          59406          1.207695e-11 
       264   1600.6302         130097   25             17             37626          32996          59433          1.2085011e-11
       265   1614.3119         130378   25             17             37426          33460          59450          1.2088677e-11
       266   1627.9167         130757   25             17             37350          33888          59477          1.2115824e-11
       267   1641.5368         131097   25             17             37258          34303          59494          1.2109779e-11
       268   1655.1703         131490   25             17             37253          34676          59519          1.2147843e-11
       269   1668.9109         131750   25             17             37120          35049          59539          1.2149147e-11
       270   1683.0329         132026   25             17             36940          35479          59565          1.2160649e-11
       271   1696.9401         132440   25             17             36937          35879          59582          1.2168919e-11
       272   1710.8101         132754   25             17             36843          36258          59611          1.2172376e-11
       273   1724.9088         133094   24             17             36798          36624          59631          1.2177243e-11
       274   1738.8783         133428   24             17             36751          36982          59654          1.2196313e-11
       275   1752.8732         133712   24             17             36668          37330          59673          1.2187533e-11
       276   1767.0471         134012   23             17             36570          37704          59698          1.2173878e-11
       277   1781.1369         134325   23             17             36521          38047          59717          1.2205456e-11
       278   1795.1989         134769   23             17             36590          38398          59741          1.2228135e-11
       279   1809.3244         135075   23             17             36530          38742          59763          1.222712e-11 
       280   1824.0296         135343   23             17             36407          39111          59785          1.2209207e-11
       281   1838.3362         135603   23             17             36259          39499          59805          1.2215984e-11
       282   1852.6951         136005   23             17             36303          39833          59829          1.2247243e-11
       283   1867.0112         136340   23             17             36274          40177          59849          1.2264338e-11
       284   1881.3971         136682   23             17             36230          40540          59872          1.2267347e-11
       285   1895.8377         136959   23             17             36159          40867          59893          1.2275238e-11
       286   1910.3836         137295   23             17             36141          41199          59915          1.2291992e-11
       287   1924.9317         137595   23             17             36113          41503          59939          1.2311438e-11
       288   1939.4985         137942   23             17             36122          41820          59960          1.2315239e-11
       289   1954.1334         138257   23             17             36099          42136          59982          1.2307068e-11
       290   1969.1627         138535   23             17             36000          42488          60007          1.2312408e-11
       291   1983.9005         138915   23             17             36028          42818          60029          1.2334732e-11
       292   1998.7529         139184   23             17             35958          43134          60052          1.2330693e-11
       293   2013.5267         139555   23             17             35963          43480          60072          1.2361852e-11
       294   2028.3881         139848   23             17             35918          43794          60096          1.2367995e-11
       295   2043.219          140165   23             17             35917          44089          60119          1.2382138e-11
       296   2058.1462         140541   23             17             35941          44419          60141          1.2375014e-11
       297   2073.1552         140791   23             17             35868          44722          60161          1.2380582e-11
       298   2088.1415         141157   23             17             35884          45051          60182          1.2409378e-11
       299   2103.2258         141435   23             17             35817          45373          60205          1.2406304e-11
       300   2118.6566         141762   23             17             35829          45663          60230          1.2432358e-11
       301   2133.796          142116   23             17             35855          45972          60249          1.2437523e-11
       302   2148.9233         142388   23             17             35815          46259          60274          1.2449159e-11
       303   2164.0975         142717   23             17             35827          46560          60290          1.2464021e-11
       304   2179.3231         143059   23             17             35789          46911          60319          1.2474015e-11
       305   2194.5929         143370   23             17             35802          47192          60336          1.249054e-11 
       306   2209.9226         143634   23             17             35703          47532          60359          1.2491686e-11
       307   2225.3016         143995   23             17             35740          47833          60382          1.2494043e-11
       308   2240.6834         144344   23             17             35752          48149          60403          1.2506192e-11
       309   2256.0884         144604   23             17             35681          48457          60426          1.2532162e-11
       310   2271.8778         144901   23             17             35633          48782          60446          1.2530526e-11
       311   2287.4195         145215   23             17             35618          49085          60472          1.2534212e-11
       312   2303.0378         145630   23             17             35702          49396          60492          1.2553591e-11
       313   2318.6986         145862   23             17             35620          49687          60515          1.2550615e-11
       314   2334.4037         146165   23             17             35582          50009          60534          1.2592957e-11
       315   2350.1342         146505   23             17             35588          50320          60557          1.2601717e-11
       316   2365.917          146822   23             17             35583          50620          60579          1.2595715e-11
       317   2381.7368         147190   23             17             35649          50897          60604          1.2619548e-11
       318   2397.5775         147501   23             17             35662          51177          60622          1.2627126e-11
       319   2413.4969         147717   23             17             35560          51468          60649          1.2622039e-11
       320   2429.7985         147996   23             17             35519          51772          60665          1.2633836e-11
Loop time of 2429.8 on 16 procs for 320 steps with 147996 atoms

98.4% CPU use with 16 MPI tasks x 1 OpenMP threads

MPI task timing breakdown:
Section |  min time  |  avg time  |  max time  |%varavg| %total
---------------------------------------------------------------
Pair    | 599        | 662.95     | 855.85     | 301.3 | 27.28
Neigh   | 472.57     | 561.71     | 871.58     | 519.2 | 23.12
Comm    | 203.27     | 234.73     | 277.71     | 160.6 |  9.66
Output  | 8.947      | 8.9471     | 8.9478     |   0.0 |  0.37
Modify  | 413.43     | 949.63     | 1115.2     | 692.8 | 39.08
Other   |            | 11.83      |            |       |  0.49

Nlocal:        9249.75 ave       13738 max        7984 min
Histogram: 10 2 0 2 0 0 0 0 0 2
Nghost:        7162.62 ave        9307 max        6145 min
Histogram: 6 4 0 0 2 0 1 1 0 2
Neighs:        91853.9 ave      105797 max       85450 min
Histogram: 4 5 1 1 1 0 2 0 1 1

Total # of neighbors = 1469662
Ave neighs/atom = 9.930417
Neighbor list builds = 28069
Dangerous builds = 27749

Total wall time: 0:40:57
