LAMMPS (23 Jun 2022 - Update 4)
  using 1 OpenMP thread(s) per MPI task
package omp 0
using multi-threaded neighbor list subroutines
#-----------------------------------------------------------------------------#
#                NUFEB Simulation: Heterotrophic Biofilm Growth               #
#-----------------------------------------------------------------------------#


#-----------------------------System Settings---------------------------------#

units si                                    # using si units (m, s, kg)
atom_style      coccus                      # using nufeb coccus atom style
atom_modify     map array sort 10 0         # map array - find atoms using indices
		                            # sort every 10

boundary        pp pp ff                    # periodic boundaries in x and y
                                            # fixed boundary in z

newton          off                         # forces between local and ghost
                                            # atoms are computed in each
					     # processor without communication

processors      * * 1                       # processor grid

comm_modify     vel yes                     # communicate velocities for ghost atoms

read_data       atom_ch.in	             # read atom.in file which defines domain size
Reading data file ...
  orthogonal box = (0 0 0) to (6e-05 6e-05 6e-05)
  4 by 4 by 1 MPI processor grid
  reading atoms ...
  150 atoms
  read_data CPU = 0.013 seconds
                                            # and initial atoms


#--------------------Microbes and Functional Groups-------------------------#

group           CROSS1   type 1               # assign type 1,2 atoms to CROSS group
50 atoms in group CROSS1
group           CROSS2   type 2
50 atoms in group CROSS2
group		CHEATER  type 3
50 atoms in group CHEATER
group           dead     type 4
0 atoms in group dead
group		EPS	 type 5
0 atoms in group EPS

neighbor        5e-7 bin                   # setting neighbour skin distance and style

neigh_modify    check yes                  # rebuild neighbour list if any atom
                                           # had moved more than half the skin distance


#--------------------------Mesh Grid and Substrates--------------------------#

# defining grid sytle, substrate names, and grid size
grid_style      nufeb/chemostat 3 sub metab1 metab2 5e-6

# set diffusion boundary conditions and initial concentrations (liquid:kg/m3)
grid_modify     set sub      pp pp nd  1.8e-4
No /omp style for force computation currently active
grid_modify     set metab1   pp pp nd  1e-4
No /omp style for force computation currently active
grid_modify     set metab2   pp pp nd  1e-4
No /omp style for force computation currently active


#--------------------------Biological Processes-------------------------------#

# heterotrophs growth
fix growth_cross1 CROSS1 nufeb/growth/cross1 sub 3.5e-5 metab2 4e-3 metab1 growth 0.009 yield 0.6 decay 2.6e-6 metab1_exp 20 epsyield 0.12 epsdens 30

fix growth_cross2 CROSS2 nufeb/growth/cross2 sub 3.5e-5 metab1 4e-3 metab2 growth 0.009 yield 0.6 decay 2.6e-6 metab2_exp 20 epsyield 0.12 epsdens 30

fix growth_cheater CHEATER nufeb/growth/cheater sub 3.5e-5 metab1 1e-3 metab2 1e-3 growth 0.009 yield 0.6 decay 2.6e-6

# heterotrophs division, division diameter: 1.36e-6
fix div1 CROSS1 nufeb/division/coccus 1.36e-6 427
fix div2 CROSS2 nufeb/division/coccus 1.36e-6 1402
fix div3 CHEATER nufeb/division/coccus 1.36e-6 3025

fix death1 CROSS1 nufeb/death/diameter dead 5.43e-7
fix death2 CROSS2 nufeb/death/diameter dead 5.43e-7
fix death3 CHEATER nufeb/death/diameter dead 5.43e-7

# EPS secretion from heterotrophs
fix eps1 CROSS1 nufeb/eps_secretion 5 EPS 1.1 30 5296
fix eps2 CROSS2 nufeb/eps_secretion 5 EPS 1.1 30 8215

#---------------------------Physical Processes--------------------------------#

pair_style  gran/hooke/history 1e-4 NULL 1e-5 NULL 0.0 0    # pairwise interaction
pair_coeff  * *                                             # between atoms

# pairwise interaction between z-wall and atoms
fix wall all wall/gran hooke/history 1e-3 NULL 1e-4 NULL 0 0 zplane 0.0 1e-04

fix vis all viscous 1e-5                                    # viscous damping force

fix grav all gravity 9.81 vector 0.0 0.0 -1.0

fix nve all nve/limit 1e-7                                  # NVE integration with
                                                            # maximum distance limit


#---------------------------Post-Physical Processes---------------------------#

fix coeff_sub all nufeb/diffusion_coeff sub ratio 0.8       # defining diffusion coeff in the biofilm
fix coeff_metab1 all nufeb/diffusion_coeff metab1 ratio 0.8    # region is 80% of the value in liquid
fix coeff_metab2 all nufeb/diffusion_coeff metab2 ratio 0.8

#---------------------------Chemical Processes---------------------------------#

fix diff_sub all nufeb/diffusion_reaction sub 1e-9        # diffusion reaction for updating
fix diff_metab1 all nufeb/diffusion_reaction metab1 4e-9     # distribusion of substrate concentration
fix diff_metab2 all nufeb/diffusion_reaction metab2 4e-9

#--------------------------Computations and Outputs----------------------------#

variable mass equal "mass(all)"                             # total mass
variable ncross1 equal "count(CROSS1)"                      # total # of CROSS1
variable ncross2 equal "count(CROSS2)"                      # total # of CROSS2
variable ncheater equal "count(CHEATER)"
variable ndead equal "count(dead)"
variable neps equal "count(EPS)"

shell mkdir vtk_EPS_ch                                            # dump vtk files to /vtk folder
dump du1 all vtk 10 vtk_EPS_ch/dump*.vtu id type diameter         # require build NUFEB with vtk option
dump du2 all grid/vtk 10 vtk_EPS_ch/dump_%_*.vti con rea den gro

#dump du3 all movie 10 movie.avi type diameter view 80 60    # dump video
#dump_modify du3 acolor 1 blue acolor 2 lightgrey framerate 10


                                                            # dump hdf5 files to /hdf5 folder
#shell mkdir hdf5                                           # require build NUFEB with hdf5 option
#dump du3 all nufeb/hdf5 10 dump.h5 id type x y z vx vy vz fx fy fz radius conc reac

thermo_style custom step cpu atoms v_ncross1 v_ncross2 v_ncheater v_ndead v_neps v_mass     # screen and log outputs
thermo 1
thermo_modify   lost ignore

#-----------------------------------Run----------------------------------------#

# issue run command, define timesteps for physical (pairdt) and chemical (diffdt) processes
run_style nufeb diffdt 1e-4 difftol 1e-6 pairdt 1e-2 pairtol 1 pairmax 1000 diffmax 5000

timestep 12000                                               # define biological timesteps (1000s)

run 320                                                    # growing biofilm for 900x1000s
Generated 0 of 6 mixed pair_coeff terms from geometric mixing rule
Last active /omp style is pair_style gran/hooke/history/omp
Neighbor list info ...
  update every 1 steps, delay 10 steps, check yes
  max neighbors/atom: 2000, page size: 100000
  master list distance cutoff = 2.49e-06
  ghost atom cutoff = 2.49e-06
  binsize = 1.245e-06, bins = 49 49 49
  1 neighbor lists, perpetual/occasional/extra = 1 0 0
  (1) pair gran/hooke/history/omp, perpetual
      attributes: half, newton off, size, history, omp
      pair build: half/size/bin/newtoff/omp
      stencil: full/bin/3d
      bin: standard
Per MPI rank memory allocation (min/avg/max) = 11.02 | 11.02 | 11.02 Mbytes
   Step          CPU          Atoms      v_ncross1      v_ncross2      v_ncheater      v_ndead         v_neps         v_mass    
         0   0                    150   50             50             50             0              0              1.3295396e-13
         1   0.38533038           432   90             85             86             0              171            1.7284471e-13
         2   0.77025803           780   116            123            135            0              406            1.9592874e-13
         3   1.1136004           1114   128            143            185            0              658            2.1551147e-13
         4   1.4034907           1433   137            153            206            0              937            2.3425174e-13
         5   1.6181395           1754   143            160            224            0              1227           2.5203677e-13
         6   1.7980074           2089   150            171            242            0              1526           2.6968644e-13
         7   1.9628494           2439   157            182            263            0              1837           2.8721238e-13
         8   2.1456487           2796   165            186            288            0              2157           3.0442026e-13
         9   2.2939958           3159   168            197            303            0              2491           3.2142284e-13
        10   2.445552            3534   171            201            331            0              2831           3.3764973e-13
        11   2.5965236           3896   173            207            348            0              3168           3.5376788e-13
        12   2.7190154           4262   180            210            365            0              3507           3.6943123e-13
        13   2.8302857           4633   182            217            381            0              3853           3.8488866e-13
        14   2.9350066           5023   193            223            404            0              4203           3.9997648e-13
        15   3.0274582           5416   198            231            426            0              4561           4.1441063e-13
        16   3.1267573           5812   201            237            441            0              4933           4.2852703e-13
        17   3.219075            6201   207            242            457            0              5295           4.4218946e-13
        18   3.3606022           6602   212            246            474            0              5670           4.5551763e-13
        19   3.4833984           7014   218            249            498            0              6049           4.6853699e-13
        20   16.561719           7411   221            253            511            0              6426           4.8109678e-13
        21   16.65507            7808   228            260            524            0              6796           4.9307203e-13
        22   16.78517            8200   232            264            541            0              7163           5.0487586e-13
        23   16.882305           8590   234            269            556            0              7531           5.1624748e-13
        24   16.977305           8991   238            277            571            0              7905           5.2757123e-13
        25   17.086549           9381   241            281            593            0              8266           5.3838266e-13
        26   17.201669           9775   243            283            610            0              8639           5.489555e-13 
        27   17.312783          10194   252            286            629            0              9027           5.590569e-13 
        28   17.412787          10598   256            288            649            0              9405           5.6869176e-13
        29   17.538336          10990   256            292            662            0              9780           5.7813491e-13
        30   35.575391          11375   261            295            674            0              10145          5.8694016e-13
        31   35.697655          11781   263            297            690            0              10531          5.9598912e-13
        32   35.85341           12160   265            298            703            0              10894          6.0467188e-13
        33   35.999014          12557   268            300            717            0              11272          6.1326426e-13
        34   36.147774          12934   269            306            725            0              11634          6.2176471e-13
        35   36.347209          13334   275            307            742            0              12010          6.3006102e-13
        36   36.5353            13759   277            313            762            0              12407          6.3812777e-13
        37   36.728508          14140   280            316            777            0              12767          6.4614827e-13
        38   36.991707          14530   281            318            785            0              13146          6.5430851e-13
        39   37.322761          14929   286            319            798            0              13526          6.6247207e-13
        40   37.668519          15324   289            319            816            0              13900          6.7060568e-13
        41   37.976927          15715   291            322            830            0              14272          6.7897126e-13
        42   38.523637          16113   293            325            845            0              14650          6.8758329e-13
        43   39.131768          16504   295            325            862            0              15022          6.9611384e-13
        44   39.837254          16912   297            328            884            0              15403          7.0472526e-13
        45   40.598999          17315   301            329            910            0              15775          7.1360187e-13
        46   41.559639          17711   302            330            930            0              16149          7.2236703e-13
        47   42.522088          18108   303            332            955            0              16518          7.3104714e-13
        48   43.526328          18504   306            336            969            0              16893          7.3964914e-13
        49   44.531882          18902   307            336            996            0              17263          7.4851217e-13
        50   45.586543          19306   308            336            1013           0              17649          7.5733804e-13
        51   46.629337          19696   312            337            1037           0              18010          7.6601614e-13
        52   47.659669          20098   313            338            1054           0              18393          7.7463192e-13
        53   48.720706          20498   314            340            1087           0              18757          7.8266733e-13
        54   49.791154          20891   317            340            1107           0              19127          7.9075191e-13
        55   50.91143           21292   317            341            1131           0              19503          7.9852843e-13
        56   52.023934          21688   317            343            1154           1              19873          8.0636715e-13
        57   53.154855          22069   317            345            1173           1              20233          8.1403982e-13
        58   54.306533          22470   318            345            1195           1              20611          8.2153421e-13
        59   55.503784          22858   321            345            1216           2              20974          8.2879906e-13
        60   56.823946          23254   322            345            1236           3              21348          8.3625487e-13
        61   58.154088          23650   326            346            1255           3              21720          8.4396872e-13
        62   59.483236          24050   327            348            1278           5              22092          8.5208468e-13
        63   60.866003          24452   330            349            1301           7              22465          8.6048516e-13
        64   62.298475          24836   333            350            1325           8              22820          8.6938735e-13
        65   63.770472          25256   334            350            1355           9              23208          8.7946169e-13
        66   65.246918          25649   336            351            1377           19             23566          8.9007255e-13
        67   66.77898           26051   337            351            1400           24             23939          9.0114417e-13
        68   68.314232          26438   338            351            1430           28             24291          9.1293756e-13
        69   69.850013          26833   338            352            1465           30             24648          9.251028e-13 
        70   71.449534          27248   340            353            1505           31             25019          9.3747371e-13
        71   73.010359          27640   341            355            1544           34             25366          9.496292e-13 
        72   74.576934          28064   343            358            1577           42             25744          9.6174704e-13
        73   76.152349          28469   343            358            1621           47             26100          9.7376362e-13
        74   77.773215          28865   344            359            1650           54             26458          9.8540321e-13
        75   79.452343          29252   345            359            1670           63             26815          9.9697962e-13
        76   81.173749          29653   345            359            1711           71             27167          1.0088223e-12
        77   82.907548          30045   345            359            1739           83             27519          1.0207064e-12
        78   84.690999          30453   345            359            1772           96             27881          1.0327598e-12
        79   86.536947          30845   346            359            1795           110            28235          1.0451662e-12
        80   88.601754          31266   348            360            1835           122            28601          1.0582855e-12
        81   90.535358          31625   349            360            1863           135            28918          1.0726324e-12
        82   92.572061          32034   350            362            1903           145            29274          1.0876151e-12
        83   94.639422          32431   350            362            1946           152            29621          1.103986e-12 
        84   96.639477          32817   350            362            1999           164            29942          1.1212827e-12
        85   98.715089          33220   350            363            2042           179            30286          1.1386687e-12
        86   100.79551          33601   350            364            2077           197            30613          1.1562559e-12
        87   102.8932           34010   350            364            2143           205            30948          1.174089e-12 
        88   104.98992          34374   351            364            2191           216            31252          1.1916676e-12
        89   107.11745          34802   351            364            2249           224            31614          1.2094517e-12
        90   109.39482          35168   352            364            2301           240            31911          1.2267799e-12
        91   111.66496          35581   352            364            2355           248            32262          1.2446575e-12
        92   113.94879          35959   352            365            2410           268            32564          1.2628319e-12
        93   116.33936          36340   352            366            2446           285            32891          1.2812194e-12
        94   118.77124          36733   353            366            2515           292            33207          1.3003085e-12
        95   121.23703          37100   353            366            2560           306            33515          1.3202749e-12
        96   123.74432          37487   353            366            2624           324            33820          1.3414721e-12
        97   126.30926          37886   353            367            2688           336            34142          1.3637556e-12
        98   128.89604          38283   353            368            2770           348            34444          1.3873191e-12
        99   131.51205          38660   353            368            2843           362            34734          1.411678e-12 
       100   134.24932          39040   353            369            2910           377            35031          1.4361962e-12
       101   136.95059          39425   353            369            2976           392            35335          1.4607271e-12
       102   139.62647          39828   353            369            3077           411            35618          1.4855606e-12
       103   142.3132           40198   353            369            3153           416            35907          1.5098065e-12
       104   145.05872          40570   353            369            3231           429            36188          1.5334871e-12
       105   147.83224          40973   353            369            3321           440            36490          1.5570885e-12
       106   150.65282          41344   354            369            3402           453            36766          1.5801919e-12
       107   153.57486          41730   354            369            3493           467            37047          1.6032396e-12
       108   156.52827          42114   354            369            3574           478            37339          1.6270331e-12
       109   159.51163          42495   355            369            3678           487            37606          1.6511158e-12
       110   162.65472          42888   355            369            3769           498            37897          1.6755261e-12
       111   165.73394          43239   355            369            3837           514            38164          1.6998438e-12
       112   168.861            43614   355            369            3932           526            38432          1.7251137e-12
       113   172.03056          44002   355            369            4031           531            38716          1.7507693e-12
       114   175.24003          44355   355            369            4109           545            38977          1.7763275e-12
       115   178.51192          44750   355            369            4216           560            39250          1.8019733e-12
       116   181.81781          45144   355            369            4318           574            39528          1.8275431e-12
       117   185.161            45503   356            369            4407           587            39784          1.8533132e-12
       118   188.52306          45895   356            369            4507           599            40064          1.8790777e-12
       119   191.97531          46252   356            369            4599           613            40315          1.9043423e-12
       120   195.6006           46626   356            369            4680           627            40594          1.9298013e-12
       121   199.12832          47004   356            369            4784           648            40847          1.9556055e-12
       122   202.72005          47394   356            369            4898           659            41112          1.9812073e-12
       123   206.35583          47782   356            369            5018           673            41366          2.0073735e-12
       124   210.05803          48169   356            369            5110           696            41638          2.0335581e-12
       125   213.80412          48532   356            369            5208           715            41884          2.0602179e-12
       126   217.61126          48921   356            369            5322           734            42140          2.0869301e-12
       127   221.48226          49303   356            369            5418           747            42413          2.113531e-12 
       128   225.39274          49701   356            369            5537           765            42674          2.1405821e-12
       129   229.36126          50068   356            369            5652           783            42908          2.1672888e-12
       130   233.51998          50454   356            369            5745           811            43173          2.1940775e-12
       131   237.61571          50828   356            369            5841           836            43426          2.2209499e-12
       132   241.77528          51209   356            369            5937           861            43686          2.2481072e-12
       133   245.99961          51594   356            369            6043           891            43935          2.2757242e-12
       134   250.28624          51997   356            369            6158           914            44200          2.3043024e-12
       135   254.62707          52371   356            368            6272           949            44426          2.3337234e-12
       136   259.03759          52774   356            368            6382           971            44697          2.3635004e-12
       137   263.49633          53168   356            368            6485           1009           44950          2.3935847e-12
       138   268.03379          53560   356            368            6604           1051           45181          2.4242011e-12
       139   272.63465          53960   355            368            6698           1094           45445          2.4550488e-12
       140   277.40782          54387   355            368            6823           1140           45701          2.4858286e-12
       141   282.12246          54742   355            368            6901           1192           45926          2.5161682e-12
       142   286.92779          55143   355            368            6989           1241           46190          2.546497e-12 
       143   291.80921          55529   355            368            7079           1290           46437          2.5766244e-12
       144   296.70634          55923   355            368            7200           1331           46669          2.6068553e-12
       145   301.65548          56364   354            368            7312           1392           46938          2.6384309e-12
       146   306.71745          56759   354            368            7415           1440           47182          2.6703975e-12
       147   311.83247          57141   354            368            7515           1501           47403          2.7034083e-12
       148   316.99588          57567   354            368            7619           1555           47671          2.7382702e-12
       149   322.25951          57963   354            367            7729           1604           47909          2.7736505e-12
       150   327.74115          58390   354            367            7858           1659           48152          2.8099468e-12
       151   333.1407           58817   354            367            7974           1715           48407          2.8469135e-12
       152   338.63331          59209   354            367            8077           1768           48643          2.884267e-12 
       153   344.16746          59639   353            367            8202           1827           48890          2.9218091e-12
       154   349.78165          60043   353            366            8296           1902           49126          2.9596099e-12
       155   355.49618          60476   353            366            8427           1963           49367          2.9976504e-12
       156   361.29454          60904   353            366            8545           2026           49614          3.0367239e-12
       157   367.16076          61349   352            366            8679           2097           49855          3.0760019e-12
       158   373.12             61767   352            366            8803           2159           50087          3.1165917e-12
       159   379.15443          62209   352            366            8942           2217           50332          3.158938e-12 
       160   385.39756          62645   352            366            9091           2265           50571          3.20315e-12  
       161   391.59112          63083   352            366            9234           2316           50815          3.2490915e-12
       162   397.92566          63521   350            366            9375           2388           51042          3.2963766e-12
       163   404.29043          63991   349            364            9536           2460           51282          3.3457372e-12
       164   410.71082          64446   348            364            9689           2529           51516          3.3965192e-12
       165   417.25412          64899   348            364            9859           2589           51739          3.4481864e-12
       166   423.91797          65392   347            364            10038          2653           51990          3.5008346e-12
       167   430.65236          65835   346            362            10192          2722           52213          3.5553989e-12
       168   437.51591          66335   347            362            10388          2804           52434          3.6106696e-12
       169   444.43259          66856   347            360            10605          2869           52675          3.6695518e-12
       170   451.6161           67329   347            359            10786          2937           52900          3.7293822e-12
       171   458.73643          67831   347            358            10983          3030           53113          3.7922995e-12
       172   465.97326          68351   347            358            11196          3108           53342          3.8596279e-12
       173   473.30696          68857   347            358            11402          3183           53567          3.9300315e-12
       174   480.73502          69415   346            357            11654          3260           53798          4.0031223e-12
       175   488.25238          69928   346            357            11889          3338           53998          4.0790426e-12
       176   495.89225          70493   346            356            12149          3414           54228          4.1589567e-12
       177   503.64115          71069   346            356            12410          3501           54456          4.2429386e-12
       178   511.51521          71644   346            355            12692          3580           54671          4.3332537e-12
       179   519.52653          72258   345            355            12989          3676           54893          4.4302846e-12
       180   527.8768           72865   345            354            13298          3759           55109          4.5356055e-12
       181   536.17682          73514   345            354            13675          3824           55316          4.6511307e-12
       182   544.65533          74173   344            354            14048          3887           55540          4.7788813e-12
       183   553.24359          74903   344            353            14493          3950           55763          4.9150957e-12
       184   562.01298          75623   344            350            14933          4029           55967          5.0554377e-12
       185   570.97146          76374   343            348            15401          4092           56190          5.199239e-12 
       186   580.03855          77075   343            348            15826          4168           56390          5.3422298e-12
       187   589.24124          77813   341            345            16267          4265           56595          5.4852824e-12
       188   598.59215          78525   340            344            16689          4354           56798          5.6399847e-12
       189   608.09901          79312   340            343            17192          4421           57016          5.7890629e-12
       190   617.944            80059   340            343            17671          4511           57194          5.9407566e-12
       191   627.77274          80829   340            341            18148          4594           57406          6.0853242e-12
       192   637.75782          81622   340            341            18647          4682           57612          6.2332655e-12
       193   647.8232           82402   340            340            19144          4767           57811          6.3944569e-12
       194   658.01212          83180   340            339            19666          4853           57982          6.5524565e-12
       195   668.25647          83964   339            337            20139          4963           58186          6.706591e-12 
       196   678.58183          84815   338            334            20706          5052           58385          6.8754401e-12
       197   688.97472          85644   338            334            21236          5165           58571          7.0429159e-12
       198   699.42601          86477   338            331            21785          5279           58744          7.2072792e-12
       199   709.94599          87350   337            330            22305          5431           58947          7.376288e-12 
       200   720.74205          88197   336            330            22874          5530           59127          7.5531542e-12
       201   731.40252          89059   335            329            23474          5642           59279          7.7232262e-12
       202   742.1186           89965   335            326            24073          5768           59463          7.9056249e-12
       203   752.87734          90889   335            325            24701          5906           59622          8.117829e-12 
       204   763.68045          91760   334            325            25278          6034           59789          8.30177e-12  
       205   774.49321          92696   333            325            25950          6161           59927          8.4957326e-12
       206   785.37764          93624   333            322            26588          6297           60084          8.674061e-12 
       207   796.34728          94561   331            321            27229          6447           60233          8.871976e-12 
       208   807.32078          95477   329            320            27853          6592           60383          9.0797537e-12
       209   818.33003          96367   327            316            28459          6753           60512          9.2697575e-12
       210   829.61144          97279   325            313            29077          6910           60654          9.4560606e-12
       211   840.71104          98274   320            307            29795          7094           60758          9.6584658e-12
       212   851.88622          99105   320            303            30269          7335           60878          9.8207252e-12
       213   863.08319         100134   319            300            30950          7560           61005          1.0038019e-11
       214   874.34824         100959   314            293            31405          7830           61117          1.0212988e-11
       215   885.6695          101902   309            284            31981          8102           61226          1.0411027e-11
       216   897.00911         102758   304            277            32498          8374           61305          1.0559574e-11
       217   908.39465         103692   297            274            33075          8656           61390          1.0731506e-11
       218   919.84369         104570   294            267            33553          8992           61464          1.0893654e-11
       219   931.35838         105377   289            261            33924          9350           61553          1.1046345e-11
       220   943.17758         106139   287            247            34235          9736           61634          1.1169441e-11
       221   954.78662         106925   282            239            34537          10139          61728          1.1280869e-11
       222   966.40568         107688   271            234            34871          10523          61789          1.1413912e-11
       223   978.06929         108509   261            232            35226          10944          61846          1.1515523e-11
       224   989.80019         109267   252            226            35578          11318          61893          1.1636878e-11
       225   1001.5726         109835   243            221            35742          11700          61929          1.1727112e-11
       226   1013.3965         110611   236            214            36129          12043          61989          1.1816487e-11
       227   1025.2776         111315   228            205            36452          12380          62050          1.1908181e-11
       228   1037.1758         111950   221            196            36781          12660          62092          1.1979716e-11
       229   1049.1223         112647   213            183            37164          12953          62134          1.2034076e-11
       230   1061.3919         113195   210            173            37412          13234          62166          1.2101574e-11
       231   1073.4565         113726   203            164            37645          13513          62201          1.2125826e-11
       232   1085.6131         114316   191            157            37927          13808          62233          1.2184277e-11
       233   1097.754          114815   174            146            38125          14106          62264          1.2180433e-11
       234   1109.9756         115447   168            134            38443          14405          62297          1.2226398e-11
       235   1122.2283         116002   160            127            38717          14674          62324          1.2269374e-11
       236   1134.527          116561   149            119            39011          14942          62340          1.2299879e-11
       237   1146.8171         116988   140            109            39132          15240          62367          1.2311775e-11
       238   1159.1651         117477   132            102            39308          15547          62388          1.2302199e-11
       239   1171.6031         117956   121            95             39479          15851          62410          1.2321904e-11
       240   1184.3122         118483   109            91             39664          16184          62435          1.2350191e-11
       241   1196.8071         118947   100            84             39765          16537          62461          1.2353279e-11
       242   1209.3346         119398   89             78             39830          16916          62485          1.2344077e-11
       243   1221.9013         119823   83             71             39902          17268          62499          1.2339403e-11
       244   1234.5192         120263   80             67             39946          17654          62516          1.2337417e-11
       245   1247.1554         120686   76             63             40000          18011          62536          1.2342191e-11
       246   1259.8355         121172   63             60             40140          18351          62558          1.2356835e-11
       247   1272.5836         121593   59             58             40221          18672          62583          1.2331533e-11
       248   1285.4127         121973   57             53             40221          19038          62604          1.2295286e-11
       249   1298.2524         122401   53             47             40274          19406          62621          1.2311989e-11
       250   1311.4268         122784   46             45             40299          19756          62638          1.2299109e-11
       251   1324.3918         123194   44             42             40381          20069          62658          1.2290397e-11
       252   1337.4149         123589   41             39             40434          20405          62670          1.2281191e-11
       253   1350.4727         124023   35             38             40483          20769          62698          1.2272958e-11
       254   1363.5743         124495   33             37             40607          21104          62714          1.2272984e-11
       255   1376.6935         124801   30             32             40552          21459          62728          1.225247e-11 
       256   1389.8848         125173   29             30             40585          21782          62747          1.2242138e-11
       257   1403.1155         125568   28             29             40655          22085          62771          1.2238095e-11
       258   1416.4021         125968   26             28             40681          22450          62783          1.2223788e-11
       259   1429.7067         126364   26             27             40717          22794          62800          1.222923e-11 
       260   1443.3242         126749   24             27             40719          23158          62821          1.2226304e-11
       261   1456.6723         127100   22             27             40710          23503          62838          1.221762e-11 
       262   1470.1414         127486   21             27             40748          23837          62853          1.2222247e-11
       263   1483.5972         127900   20             25             40780          24199          62876          1.2225239e-11
       264   1497.1369         128270   19             23             40782          24557          62889          1.2211448e-11
       265   1510.7285         128656   19             23             40819          24882          62913          1.2214084e-11
       266   1524.3135         128966   19             22             40784          25214          62927          1.2208416e-11
       267   1537.9978         129295   17             21             40724          25585          62948          1.2191695e-11
       268   1551.7198         129695   15             21             40749          25948          62962          1.21694e-11  
       269   1565.4465         130145   14             21             40811          26316          62983          1.2210426e-11
       270   1579.479          130554   14             21             40802          26722          62995          1.2226522e-11
       271   1593.2935         130913   14             21             40702          27161          63015          1.2215924e-11
       272   1607.1514         131250   14             21             40634          27551          63030          1.220889e-11 
       273   1621.0951         131551   14             21             40504          27962          63050          1.2201681e-11
       274   1635.0604         131920   14             21             40451          28370          63064          1.2198331e-11
       275   1649.082          132259   14             20             40307          28832          63086          1.2187967e-11
       276   1663.1523         132622   14             20             40245          29245          63098          1.2207785e-11
       277   1677.2472         132995   13             20             40166          29676          63120          1.2190165e-11
       278   1691.4387         133324   13             20             40020          30136          63135          1.220273e-11 
       279   1705.5979         133654   13             20             39868          30598          63155          1.2181552e-11
       280   1720.0738         134028   13             20             39781          31045          63169          1.2218059e-11
       281   1734.3167         134450   13             20             39728          31499          63190          1.2204656e-11
       282   1748.4542         134771   13             20             39562          31974          63202          1.2230133e-11
       283   1762.626          135091   13             20             39375          32457          63226          1.2242193e-11
       284   1776.8175         135496   13             20             39286          32941          63236          1.2259236e-11
       285   1791.2357         135816   13             20             39073          33451          63259          1.2221467e-11
       286   1805.6817         136125   13             20             38901          33918          63273          1.2226131e-11
       287   1820.1353         136522   13             20             38781          34415          63293          1.2232935e-11
       288   1834.5118         136841   13             20             38620          34878          63310          1.2244739e-11
       289   1849.0486         137128   12             20             38409          35360          63327          1.2247252e-11
       290   1863.8762         137525   12             20             38332          35818          63343          1.2268346e-11
       291   1878.3095         137851   12             20             38180          36278          63361          1.2283772e-11
       292   1892.999          138128   12             20             37983          36734          63379          1.2252925e-11
       293   1907.5463         138516   12             20             37887          37198          63399          1.2277085e-11
       294   1922.0621         138816   12             20             37747          37622          63415          1.2285546e-11
       295   1936.6557         139159   12             20             37609          38085          63433          1.2314494e-11
       296   1951.3315         139491   12             20             37487          38522          63450          1.2312553e-11
       297   1966.0475         139823   12             20             37378          38943          63470          1.231396e-11 
       298   1980.9919         140160   12             20             37297          39347          63484          1.230822e-11 
       299   1995.7803         140490   12             20             37229          39726          63503          1.2336976e-11
       300   2010.9443         140774   12             20             37129          40093          63520          1.2328002e-11
       301   2025.7968         141193   12             20             37102          40520          63539          1.2356533e-11
       302   2040.8185         141561   12             20             37037          40936          63556          1.2375502e-11
       303   2055.8788         141843   12             20             36910          41327          63574          1.2380319e-11
       304   2071.034          142150   12             20             36788          41739          63591          1.2363882e-11
       305   2086.1747         142443   12             20             36689          42112          63610          1.2370997e-11
       306   2101.3056         142729   12             20             36608          42461          63628          1.2398933e-11
       307   2116.4638         143115   12             20             36581          42857          63645          1.2405996e-11
       308   2131.8039         143438   12             20             36547          43196          63663          1.2398186e-11
       309   2147.0439         143763   12             20             36508          43541          63682          1.2415632e-11
       310   2162.6197         144063   12             20             36412          43922          63697          1.2436725e-11
       311   2178.0145         144390   12             20             36358          44278          63722          1.2434176e-11
       312   2193.463          144756   12             20             36335          44657          63732          1.2451999e-11
       313   2208.9299         145012   12             20             36221          45004          63755          1.2447524e-11
       314   2224.4143         145383   12             20             36253          45327          63771          1.2465684e-11
       315   2239.8759         145727   12             20             36284          45623          63788          1.2487332e-11
       316   2255.4074         145988   12             20             36190          45958          63808          1.2491061e-11
       317   2271.0344         146292   12             20             36146          46289          63825          1.2498196e-11
       318   2286.6965         146597   12             20             36105          46617          63843          1.2513311e-11
       319   2302.4974         146949   12             19             36115          46941          63862          1.2523771e-11
       320   2318.6637         147297   12             19             36131          47257          63878          1.2524198e-11
Loop time of 2318.66 on 16 procs for 320 steps with 147297 atoms

98.2% CPU use with 16 MPI tasks x 1 OpenMP threads

MPI task timing breakdown:
Section |  min time  |  avg time  |  max time  |%varavg| %total
---------------------------------------------------------------
Pair    | 553.66     | 623.68     | 801.36     | 279.8 | 26.90
Neigh   | 428.23     | 527.6      | 794.51     | 457.3 | 22.75
Comm    | 202.63     | 237.07     | 270.78     | 157.1 | 10.22
Output  | 36.489     | 36.489     | 36.49      |   0.0 |  1.57
Modify  | 410.61     | 882        | 1081       | 645.4 | 38.04
Other   |            | 11.83      |            |       |  0.51

Nlocal:        9206.06 ave       13333 max        7568 min
Histogram: 7 2 1 1 1 2 0 0 1 1
Nghost:        7193.19 ave        9979 max        5970 min
Histogram: 7 1 2 0 1 2 1 1 0 1
Neighs:        86146.1 ave      101914 max       79095 min
Histogram: 2 6 3 0 2 0 1 1 0 1

Total # of neighbors = 1378338
Ave neighs/atom = 9.3575429
Neighbor list builds = 28002
Dangerous builds = 27682

Total wall time: 0:39:08
