LAMMPS (23 Jun 2022 - Update 4)
  using 1 OpenMP thread(s) per MPI task
package omp 0
using multi-threaded neighbor list subroutines
#-----------------------------------------------------------------------------#
#                NUFEB Simulation: Heterotrophic Biofilm Growth               #
#-----------------------------------------------------------------------------#


#-----------------------------System Settings---------------------------------#

units si                                    # using si units (m, s, kg)
atom_style      coccus                      # using nufeb coccus atom style
atom_modify     map array sort 10 0         # map array - find atoms using indices
		                            # sort every 10

boundary        pp pp ff                    # periodic boundaries in x and y
                                            # fixed boundary in z

newton          off                         # forces between local and ghost
                                            # atoms are computed in each
					     # processor without communication

processors      * * 1                       # processor grid

comm_modify     vel yes                     # communicate velocities for ghost atoms

read_data       atom_ch.in	             # read atom.in file which defines domain size
Reading data file ...
  orthogonal box = (0 0 0) to (6e-05 6e-05 6e-05)
  4 by 4 by 1 MPI processor grid
  reading atoms ...
  150 atoms
  read_data CPU = 0.021 seconds
                                            # and initial atoms


#--------------------Microbes and Functional Groups-------------------------#

group           CROSS1   type 1               # assign type 1,2 atoms to CROSS group
50 atoms in group CROSS1
group           CROSS2   type 2
50 atoms in group CROSS2
group		CHEATER  type 3
50 atoms in group CHEATER
group           dead     type 4
0 atoms in group dead
group		EPS	 type 5
0 atoms in group EPS

neighbor        5e-7 bin                   # setting neighbour skin distance and style

neigh_modify    check yes                  # rebuild neighbour list if any atom
                                           # had moved more than half the skin distance


#--------------------------Mesh Grid and Substrates--------------------------#

# defining grid sytle, substrate names, and grid size
grid_style      nufeb/chemostat 3 sub metab1 metab2 5e-6

# set diffusion boundary conditions and initial concentrations (liquid:kg/m3)
grid_modify     set sub      pp pp nd  1.8e-4
No /omp style for force computation currently active
grid_modify     set metab1   pp pp nd  1e-4
No /omp style for force computation currently active
grid_modify     set metab2   pp pp nd  1e-4
No /omp style for force computation currently active


#--------------------------Biological Processes-------------------------------#

# heterotrophs growth
fix growth_cross1 CROSS1 nufeb/growth/cross1 sub 3.5e-5 metab2 4e-3 metab1 growth 0.009 yield 0.6 decay 2.6e-6 metab1_exp 20 epsyield 0.12 epsdens 30

fix growth_cross2 CROSS2 nufeb/growth/cross2 sub 3.5e-5 metab1 4e-3 metab2 growth 0.009 yield 0.6 decay 2.6e-6 metab2_exp 20 epsyield 0.12 epsdens 30

fix growth_cheater CHEATER nufeb/growth/cheater sub 3.5e-5 metab1 1e-3 metab2 1e-3 growth 0.009 yield 0.6 decay 2.6e-6

# heterotrophs division, division diameter: 1.36e-6
fix div1 CROSS1 nufeb/division/coccus 1.36e-6 299
fix div2 CROSS2 nufeb/division/coccus 1.36e-6 890
fix div3 CHEATER nufeb/division/coccus 1.36e-6 1873

fix death1 CROSS1 nufeb/death/diameter dead 5.43e-7
fix death2 CROSS2 nufeb/death/diameter dead 5.43e-7
fix death3 CHEATER nufeb/death/diameter dead 5.43e-7

# EPS secretion from heterotrophs
fix eps1 CROSS1 nufeb/eps_secretion 5 EPS 1.1 30 3248
fix eps2 CROSS2 nufeb/eps_secretion 5 EPS 1.1 30 5015

#---------------------------Physical Processes--------------------------------#

pair_style  gran/hooke/history 1e-4 NULL 1e-5 NULL 0.0 0    # pairwise interaction
pair_coeff  * *                                             # between atoms

# pairwise interaction between z-wall and atoms
fix wall all wall/gran hooke/history 1e-3 NULL 1e-4 NULL 0 0 zplane 0.0 1e-04

fix vis all viscous 1e-5                                    # viscous damping force

fix grav all gravity 9.81 vector 0.0 0.0 -1.0

fix nve all nve/limit 1e-7                                  # NVE integration with
                                                            # maximum distance limit


#---------------------------Post-Physical Processes---------------------------#

fix coeff_sub all nufeb/diffusion_coeff sub ratio 0.8       # defining diffusion coeff in the biofilm
fix coeff_metab1 all nufeb/diffusion_coeff metab1 ratio 0.8    # region is 80% of the value in liquid
fix coeff_metab2 all nufeb/diffusion_coeff metab2 ratio 0.8

#---------------------------Chemical Processes---------------------------------#

fix diff_sub all nufeb/diffusion_reaction sub 1e-9        # diffusion reaction for updating
fix diff_metab1 all nufeb/diffusion_reaction metab1 4e-9     # distribusion of substrate concentration
fix diff_metab2 all nufeb/diffusion_reaction metab2 4e-9

#--------------------------Computations and Outputs----------------------------#

variable mass equal "mass(all)"                             # total mass
variable ncross1 equal "count(CROSS1)"                      # total # of CROSS1
variable ncross2 equal "count(CROSS2)"                      # total # of CROSS2
variable ncheater equal "count(CHEATER)"
variable ndead equal "count(dead)"
variable neps equal "count(EPS)"

shell mkdir vtk_EPS_ch                                            # dump vtk files to /vtk folder
dump du1 all vtk 10 vtk_EPS_ch/dump*.vtu id type diameter         # require build NUFEB with vtk option
dump du2 all grid/vtk 10 vtk_EPS_ch/dump_%_*.vti con rea den gro

#dump du3 all movie 10 movie.avi type diameter view 80 60    # dump video
#dump_modify du3 acolor 1 blue acolor 2 lightgrey framerate 10


                                                            # dump hdf5 files to /hdf5 folder
#shell mkdir hdf5                                           # require build NUFEB with hdf5 option
#dump du3 all nufeb/hdf5 10 dump.h5 id type x y z vx vy vz fx fy fz radius conc reac

thermo_style custom step cpu atoms v_ncross1 v_ncross2 v_ncheater v_ndead v_neps v_mass     # screen and log outputs
thermo 1
thermo_modify   lost ignore

#-----------------------------------Run----------------------------------------#

# issue run command, define timesteps for physical (pairdt) and chemical (diffdt) processes
run_style nufeb diffdt 1e-4 difftol 1e-6 pairdt 1e-2 pairtol 1 pairmax 1000 diffmax 5000

timestep 12000                                               # define biological timesteps (1000s)

run 320                                                    # growing biofilm for 900x1000s
Generated 0 of 6 mixed pair_coeff terms from geometric mixing rule
Last active /omp style is pair_style gran/hooke/history/omp
Neighbor list info ...
  update every 1 steps, delay 10 steps, check yes
  max neighbors/atom: 2000, page size: 100000
  master list distance cutoff = 2.49e-06
  ghost atom cutoff = 2.49e-06
  binsize = 1.245e-06, bins = 49 49 49
  1 neighbor lists, perpetual/occasional/extra = 1 0 0
  (1) pair gran/hooke/history/omp, perpetual
      attributes: half, newton off, size, history, omp
      pair build: half/size/bin/newtoff/omp
      stencil: full/bin/3d
      bin: standard
Per MPI rank memory allocation (min/avg/max) = 11.02 | 11.02 | 11.02 Mbytes
   Step          CPU          Atoms      v_ncross1      v_ncross2      v_ncheater      v_ndead         v_neps         v_mass    
         0   0                    150   50             50             50             0              0              1.3295396e-13
         1   0.38329001           432   90             85             86             0              171            1.726551e-13 
         2   0.76664093           794   120            125            136            0              413            1.9562009e-13
         3   1.0855925           1118   130            144            181            0              663            2.1453337e-13
         4   1.388176            1429   138            152            199            0              940            2.321667e-13 
         5   1.5974              1755   141            162            217            0              1235           2.4926184e-13
         6   1.7753588           2077   149            169            232            0              1527           2.6570114e-13
         7   1.9218027           2414   155            177            248            0              1834           2.8181253e-13
         8   2.0547926           2763   170            182            264            0              2147           2.9758418e-13
         9   2.1789946           3139   178            192            279            0              2490           3.1296464e-13
        10   2.7414193           3502   180            200            298            0              2824           3.280103e-13 
        11   2.8762212           3875   181            211            312            0              3171           3.4276888e-13
        12   3.0011132           4257   184            214            336            0              3523           3.5714356e-13
        13   3.0972279           4643   190            224            351            0              3878           3.7095969e-13
        14   3.2369849           5020   196            230            357            0              4237           3.8436148e-13
        15   3.3749791           5414   204            236            372            0              4602           3.9772224e-13
        16   3.4585489           5797   204            239            393            0              4961           4.1101729e-13
        17   3.5633654           6199   209            243            414            0              5333           4.2393678e-13
        18   3.6857231           6576   213            248            427            0              5688           4.3641306e-13
        19   3.7846802           6973   217            254            440            0              6062           4.4858585e-13
        20   20.847983           7372   224            255            457            0              6436           4.6045594e-13
        21   20.947933           7801   230            264            478            0              6829           4.7201069e-13
        22   21.043171           8202   234            268            495            0              7205           4.8327927e-13
        23   21.129191           8594   234            271            506            0              7583           4.9434472e-13
        24   21.214299           8995   236            274            523            0              7962           5.05186e-13  
        25   21.350724           9410   239            282            537            0              8352           5.1577826e-13
        26   21.465625           9795   244            288            548            0              8715           5.2558174e-13
        27   21.560853          10206   247            291            558            0              9110           5.3502806e-13
        28   21.647319          10613   257            294            570            0              9492           5.4393165e-13
        29   21.764013          11036   260            296            583            0              9897           5.5247013e-13
        30   37.926585          11427   263            300            595            0              10269          5.6097014e-13
        31   38.069534          11833   265            304            605            0              10659          5.6922002e-13
        32   38.200622          12245   270            307            613            0              11055          5.7729537e-13
        33   38.316163          12642   273            310            621            0              11438          5.8512825e-13
        34   38.450565          13039   277            316            632            0              11814          5.9273742e-13
        35   38.631597          13462   280            316            645            0              12221          6.0036493e-13
        36   38.800584          13848   281            316            657            0              12594          6.077009e-13 
        37   38.991199          14266   284            320            669            0              12993          6.1527614e-13
        38   39.203121          14646   288            323            680            0              13355          6.2230589e-13
        39   39.454044          15071   288            325            689            0              13769          6.2952992e-13
        40   40.110719          15465   293            326            702            0              14144          6.3622263e-13
        41   40.629459          15859   295            327            716            0              14521          6.4257731e-13
        42   41.276539          16286   298            331            726            0              14931          6.4913205e-13
        43   42.096113          16680   304            332            731            0              15313          6.5565677e-13
        44   43.014473          17105   310            334            745            0              15716          6.6224233e-13
        45   43.949862          17530   313            336            753            0              16128          6.6867029e-13
        46   44.619421          17928   315            338            764            0              16511          6.7495648e-13
        47   45.582356          18366   317            341            778            0              16930          6.8139064e-13
        48   46.572829          18760   318            342            787            0              17313          6.8775538e-13
        49   47.608             19171   319            343            800            0              17709          6.9394085e-13
        50   48.704821          19582   321            343            811            0              18107          7.0035772e-13
        51   49.744445          19996   321            344            827            0              18504          7.0678399e-13
        52   50.814625          20392   322            347            843            1              18879          7.1291667e-13
        53   51.941747          20819   322            350            856            1              19290          7.1939948e-13
        54   53.05791           21213   326            355            860            1              19671          7.2585712e-13
        55   54.194416          21641   327            356            878            1              20079          7.3242575e-13
        56   55.35886           22042   328            356            898            1              20459          7.3845628e-13
        57   56.536078          22476   329            357            915            2              20873          7.4494488e-13
        58   57.774612          22878   331            357            925            3              21262          7.5120611e-13
        59   59.043167          23296   331            357            935            4              21669          7.579764e-13 
        60   60.38781           23698   333            358            948            5              22054          7.647612e-13 
        61   61.725007          24121   335            360            969            5              22452          7.7168682e-13
        62   63.124549          24537   338            362            989            6              22842          7.7875568e-13
        63   64.562331          24963   340            362            1011           9              23241          7.8643041e-13
        64   66.00121           25370   341            362            1032           10             23625          7.9475347e-13
        65   67.4676            25790   344            363            1048           14             24021          8.0346717e-13
        66   68.969994          26208   349            366            1068           17             24408          8.1230073e-13
        67   70.474346          26619   350            368            1084           18             24799          8.2159467e-13
        68   71.985474          27033   351            370            1107           21             25184          8.3117786e-13
        69   73.512296          27454   355            371            1134           23             25571          8.4089037e-13
        70   75.147931          27882   356            372            1155           26             25973          8.5044232e-13
        71   76.730391          28279   359            373            1171           36             26340          8.5975171e-13
        72   78.326831          28733   361            373            1197           39             26763          8.6924323e-13
        73   79.933124          29136   362            375            1223           42             27134          8.783114e-13 
        74   81.580666          29567   364            375            1244           44             27540          8.8735048e-13
        75   83.268082          29985   366            375            1270           53             27921          8.9619632e-13
        76   85.032519          30400   367            376            1284           56             28317          9.0511953e-13
        77   86.802797          30820   367            376            1311           62             28704          9.1441778e-13
        78   88.649895          31246   368            376            1338           70             29094          9.2376397e-13
        79   90.542044          31653   369            376            1364           74             29470          9.3320737e-13
        80   92.594426          32098   369            378            1390           76             29885          9.4322495e-13
        81   94.607188          32498   370            380            1420           80             30248          9.5372755e-13
        82   96.649113          32948   370            381            1457           86             30654          9.6517783e-13
        83   98.705579          33342   370            381            1486           95             31010          9.7733414e-13
        84   100.77804          33780   370            382            1518           105            31405          9.8965257e-13
        85   102.85463          34195   371            382            1543           118            31781          1.0021533e-12
        86   104.97279          34619   371            383            1575           128            32162          1.0147224e-12
        87   107.11273          35039   371            383            1615           137            32533          1.0276211e-12
        88   109.34581          35454   371            384            1647           153            32899          1.0404802e-12
        89   111.65288          35868   371            384            1665           173            33275          1.0540587e-12
        90   114.07457          36279   371            384            1708           179            33637          1.0686448e-12
        91   116.5151           36702   372            385            1749           189            34007          1.0837414e-12
        92   118.98994          37128   374            385            1794           200            34375          1.099942e-12 
        93   121.51811          37543   374            385            1839           212            34733          1.1171994e-12
        94   124.09324          37969   374            386            1894           223            35092          1.1357796e-12
        95   126.69759          38379   375            386            1945           234            35439          1.1552128e-12
        96   129.31153          38800   376            386            2013           240            35785          1.1752293e-12
        97   131.93172          39228   376            386            2083           245            36138          1.1954408e-12
        98   134.61669          39657   378            387            2141           255            36496          1.2155546e-12
        99   137.34612          40063   378            388            2192           270            36835          1.2360624e-12
       100   140.23939          40499   378            388            2264           281            37188          1.2567782e-12
       101   143.13498          40897   378            388            2331           285            37515          1.2779027e-12
       102   146.09255          41315   378            388            2412           289            37848          1.3001638e-12
       103   149.08053          41730   378            388            2492           292            38180          1.3228389e-12
       104   152.11166          42138   378            388            2564           299            38509          1.34648e-12  
       105   155.21899          42551   378            389            2645           305            38834          1.3710442e-12
       106   158.35437          42949   378            389            2733           307            39142          1.3969348e-12
       107   161.54329          43364   378            389            2809           312            39476          1.4229715e-12
       108   164.76477          43765   378            389            2906           321            39771          1.4490291e-12
       109   168.01161          44192   378            389            2992           327            40106          1.4749682e-12
       110   171.48728          44579   378            390            3079           329            40403          1.5002813e-12
       111   174.92711          44973   378            391            3171           333            40700          1.5259571e-12
       112   178.43415          45405   378            391            3270           340            41026          1.5518134e-12
       113   182.01174          45797   378            391            3367           348            41313          1.5781729e-12
       114   185.62148          46205   378            391            3448           356            41632          1.6059384e-12
       115   189.31253          46613   379            392            3557           363            41922          1.6338167e-12
       116   193.05328          47014   380            393            3651           372            42218          1.6622872e-12
       117   196.85843          47431   380            393            3746           390            42522          1.6909986e-12
       118   200.73185          47834   380            393            3828           406            42827          1.7193542e-12
       119   204.67536          48239   380            394            3911           429            43125          1.7470741e-12
       120   208.78669          48629   380            394            3996           446            43413          1.7745799e-12
       121   212.82731          49040   380            396            4093           464            43707          1.8015698e-12
       122   216.96125          49444   380            396            4182           481            44005          1.8282499e-12
       123   221.1881           49851   380            397            4281           491            44302          1.8565229e-12
       124   225.45913          50261   380            397            4386           508            44590          1.8849604e-12
       125   229.7829           50667   380            397            4492           523            44875          1.9143921e-12
       126   234.20312          51075   380            398            4584           542            45171          1.9447554e-12
       127   238.69959          51491   380            400            4682           567            45462          1.9758748e-12
       128   243.24233          51887   380            400            4781           582            45744          2.0075576e-12
       129   247.87046          52292   379            400            4878           609            46026          2.0394007e-12
       130   252.71238          52723   379            402            4976           638            46328          2.0707605e-12
       131   257.489            53121   379            403            5083           662            46594          2.1024506e-12
       132   262.3427           53539   379            405            5183           685            46887          2.1343541e-12
       133   267.3094           53971   379            406            5284           720            47182          2.1661822e-12
       134   272.35376          54368   379            408            5390           743            47448          2.1989726e-12
       135   277.48497          54809   379            409            5510           772            47739          2.2322297e-12
       136   282.69902          55215   379            410            5599           812            48015          2.2667135e-12
       137   287.98944          55636   378            411            5705           844            48298          2.3027055e-12
       138   293.37624          56073   378            412            5804           892            48587          2.3395515e-12
       139   298.8835           56490   378            413            5914           930            48855          2.3769977e-12
       140   304.60783          56944   378            414            6043           961            49148          2.4145657e-12
       141   310.28043          57396   378            414            6178           1003           49423          2.4530511e-12
       142   316.03221          57842   377            413            6316           1041           49695          2.4918781e-12
       143   321.87081          58278   377            413            6411           1086           49991          2.5318266e-12
       144   327.80934          58716   378            413            6531           1133           50261          2.5729788e-12
       145   333.86287          59163   378            412            6656           1182           50535          2.6152993e-12
       146   339.98676          59617   377            413            6797           1228           50802          2.6602651e-12
       147   346.19575          60085   378            414            6946           1282           51065          2.7062869e-12
       148   352.51895          60564   378            414            7100           1325           51347          2.7534977e-12
       149   358.93134          61047   377            414            7271           1363           51622          2.8015546e-12
       150   365.58999          61502   377            415            7425           1403           51882          2.850171e-12 
       151   372.24708          61972   378            416            7574           1462           52142          2.9000672e-12
       152   378.99672          62469   377            418            7746           1512           52416          2.950633e-12 
       153   385.85303          62952   378            419            7919           1553           52683          3.0033365e-12
       154   392.82469          63436   378            419            8096           1595           52948          3.0575309e-12
       155   399.89894          63973   379            419            8298           1645           53232          3.114858e-12 
       156   407.05432          64486   378            419            8488           1705           53496          3.174804e-12 
       157   414.32664          64995   378            419            8676           1772           53750          3.2388684e-12
       158   421.71044          65554   378            419            8891           1836           54030          3.3056311e-12
       159   429.28662          66112   378            419            9140           1877           54298          3.3760549e-12
       160   437.13048          66645   378            419            9355           1936           54557          3.4497737e-12
       161   444.98564          67240   378            419            9616           1987           54840          3.5247869e-12
       162   452.97341          67807   378            419            9865           2042           55103          3.6030111e-12
       163   461.07308          68415   378            419            10137          2097           55384          3.6858267e-12
       164   469.36246          68993   379            418            10380          2169           55647          3.7748056e-12
       165   477.75778          69602   378            418            10677          2224           55905          3.8754679e-12
       166   486.35236          70268   378            418            11014          2280           56178          3.9852098e-12
       167   495.07193          70959   380            417            11376          2335           56451          4.1056587e-12
       168   504.0205           71689   381            417            11754          2402           56735          4.2358052e-12
       169   513.19563          72400   381            418            12166          2448           56987          4.3684668e-12
       170   522.72032          73131   380            418            12574          2500           57259          4.4995225e-12
       171   532.24437          73883   381            415            12991          2569           57527          4.6329732e-12
       172   541.91943          74586   380            414            13366          2625           57801          4.7703653e-12
       173   551.77997          75330   381            414            13786          2677           58072          4.8993724e-12
       174   561.81025          76070   381            414            14207          2737           58331          5.0387847e-12
       175   572.05394          76895   380            412            14692          2798           58613          5.1807262e-12
       176   582.3927           77638   380            411            15107          2876           58864          5.3270088e-12
       177   592.90475          78444   380            410            15559          2944           59151          5.4648145e-12
       178   603.56272          79259   380            409            16054          3013           59403          5.6240543e-12
       179   614.45807          80056   380            408            16536          3081           59651          5.7735502e-12
       180   625.69687          80877   380            408            17041          3135           59913          5.9342541e-12
       181   636.84205          81714   380            407            17534          3208           60185          6.0827617e-12
       182   648.06447          82560   380            407            18068          3274           60431          6.2459205e-12
       183   659.40503          83428   380            406            18595          3360           60687          6.4149099e-12
       184   670.85681          84269   379            405            19114          3450           60921          6.5768136e-12
       185   682.37532          85162   379            405            19684          3518           61176          6.7577648e-12
       186   693.98842          86049   378            404            20272          3582           61413          6.9245196e-12
       187   705.7127           86997   378            404            20881          3666           61668          7.1047187e-12
       188   717.58755          87893   378            402            21455          3759           61899          7.2868324e-12
       189   729.55625          88808   378            400            22068          3855           62107          7.4889134e-12
       190   742.11812          89705   377            400            22650          3950           62328          7.6717219e-12
       191   754.24114          90696   377            398            23293          4060           62568          7.8748274e-12
       192   766.42478          91696   376            398            23962          4204           62756          8.0843528e-12
       193   778.72577          92719   375            394            24644          4350           62956          8.311929e-12 
       194   791.14717          93720   375            393            25299          4502           63151          8.5352528e-12
       195   803.58977          94631   373            390            25852          4687           63329          8.7339809e-12
       196   816.0958           95570   373            389            26399          4888           63521          8.9459628e-12
       197   828.73274          96578   372            388            27051          5088           63679          9.1464107e-12
       198   841.45196          97592   370            387            27703          5302           63830          9.3630512e-12
       199   854.22005          98620   370            384            28337          5520           64009          9.5858891e-12
       200   867.29285          99497   369            381            28809          5788           64150          9.7698096e-12
       201   880.20988         100361   369            380            29280          6061           64271          9.9685865e-12
       202   893.24964         101386   368            374            29918          6333           64393          1.0182453e-11
       203   906.3299          102381   367            369            30497          6632           64516          1.0376965e-11
       204   919.49196         103263   365            369            30954          6942           64633          1.0572933e-11
       205   932.75811         104136   364            369            31443          7225           64735          1.0747675e-11
       206   946.09033         104933   362            366            31869          7511           64825          1.0889702e-11
       207   959.52544         105796   358            360            32360          7806           64912          1.1028819e-11
       208   973.04386         106674   357            354            32862          8076           65025          1.1183175e-11
       209   986.65209         107431   351            345            33294          8343           65098          1.1312021e-11
       210   1000.584          108154   346            339            33703          8606           65160          1.1427856e-11
       211   1014.2818         108873   342            335            34125          8843           65228          1.1530667e-11
       212   1028.0832         109618   338            333            34575          9085           65287          1.1634158e-11
       213   1041.9156         110263   329            326            34992          9271           65345          1.1731853e-11
       214   1055.7796         110910   323            317            35395          9466           65409          1.18078e-11  
       215   1069.7356         111598   320            314            35877          9622           65465          1.187976e-11 
       216   1083.7036         112202   316            308            36261          9790           65527          1.1913135e-11
       217   1097.7992         112873   305            300            36697          9990           65581          1.198944e-11 
       218   1111.9287         113387   298            291            36967          10193          65638          1.2044677e-11
       219   1126.1621         113890   286            281            37241          10404          65678          1.2054228e-11
       220   1140.7306         114454   275            276            37509          10676          65718          1.2091016e-11
       221   1155.1539         115081   267            265            37883          10911          65755          1.2137555e-11
       222   1169.6031         115617   258            255            38138          11181          65785          1.2170885e-11
       223   1184.1258         116124   254            247            38342          11449          65832          1.2157681e-11
       224   1198.649          116592   248            233            38487          11749          65875          1.2175695e-11
       225   1213.2512         117134   239            226            38701          12061          65907          1.2190534e-11
       226   1227.8539         117572   230            207            38780          12411          65944          1.2170226e-11
       227   1242.5371         118048   226            200            38902          12736          65984          1.2190945e-11
       228   1257.2617         118471   216            193            38965          13078          66019          1.219839e-11 
       229   1272.0907         118910   210            184            39050          13414          66052          1.2164096e-11
       230   1287.1923         119396   203            177            39165          13764          66087          1.2174023e-11
       231   1302.1275         119836   196            166            39271          14082          66121          1.2162814e-11
       232   1317.1119         120260   184            157            39374          14392          66153          1.215477e-11 
       233   1332.1268         120672   172            149            39441          14725          66185          1.217245e-11 
       234   1347.1456         121091   164            143            39569          15000          66215          1.2151829e-11
       235   1362.2467         121572   156            135            39727          15302          66252          1.2158362e-11
       236   1377.3426         122071   148            128            39888          15617          66290          1.2151126e-11
       237   1392.5038         122482   141            121            39961          15937          66322          1.2142555e-11
       238   1407.7684         122912   133            116            40074          16229          66360          1.2149e-11   
       239   1423.0682         123265   132            112            40121          16504          66396          1.2142066e-11
       240   1438.7326         123718   127            108            40272          16784          66427          1.2131288e-11
       241   1454.1563         124122   122            104            40363          17077          66456          1.2132435e-11
       242   1469.6762         124531   119            102            40428          17393          66489          1.2133659e-11
       243   1485.2446         124962   119            98             40532          17686          66527          1.2120265e-11
       244   1500.8715         125379   115            98             40612          17990          66564          1.2092893e-11
       245   1516.5764         125780   110            98             40690          18284          66598          1.2107556e-11
       246   1532.3148         126179   107            96             40744          18596          66636          1.2113125e-11
       247   1548.1183         126580   102            91             40760          18955          66672          1.2096318e-11
       248   1563.999          126984   101            89             40837          19253          66704          1.208388e-11 
       249   1579.9366         127401   96             89             40882          19594          66740          1.2092464e-11
       250   1596.2524         127847   93             87             40939          19947          66781          1.2092203e-11
       251   1612.2716         128178   92             86             40874          20305          66821          1.2079934e-11
       252   1628.3349         128520   92             84             40821          20666          66857          1.2053777e-11
       253   1644.4113         128924   90             78             40846          21013          66897          1.2047196e-11
       254   1660.5446         129303   88             77             40840          21364          66934          1.2035927e-11
       255   1676.7647         129694   85             72             40828          21738          66971          1.2034463e-11
       256   1693.0958         130077   79             70             40849          22081          66998          1.204197e-11 
       257   1709.4769         130465   77             69             40818          22457          67044          1.2054994e-11
       258   1725.8966         130793   75             67             40726          22841          67084          1.2019084e-11
       259   1742.4044         131237   70             67             40719          23266          67115          1.2044198e-11
       260   1759.2985         131586   65             66             40618          23689          67148          1.2033333e-11
       261   1775.9376         131942   63             64             40505          24124          67186          1.2047251e-11
       262   1792.6264         132377   60             64             40465          24566          67222          1.2059728e-11
       263   1809.3657         132745   59             61             40330          25033          67262          1.2054607e-11
       264   1826.1963         133105   56             58             40195          25505          67291          1.2040393e-11
       265   1843.1292         133440   53             55             40033          25971          67328          1.2034594e-11
       266   1860.0611         133858   52             52             39960          26431          67363          1.2078369e-11
       267   1877.1034         134185   51             47             39750          26944          67393          1.2057889e-11
       268   1894.1244         134601   51             47             39640          27437          67426          1.2076558e-11
       269   1911.2348         134913   50             46             39452          27902          67463          1.2067516e-11
       270   1928.8085         135259   49             44             39303          28372          67491          1.2058799e-11
       271   1946.0918         135740   49             44             39227          28893          67527          1.2099675e-11
       272   1963.4297         136017   48             40             38958          29414          67557          1.2088342e-11
       273   1980.8264         136374   48             38             38732          29965          67591          1.2090435e-11
       274   1998.3212         136772   48             38             38599          30464          67623          1.2102964e-11
       275   2015.7544         137131   46             35             38482          30916          67652          1.2110205e-11
       276   2033.2964         137479   43             33             38322          31394          67687          1.2125796e-11
       277   2050.9285         137920   43             32             38286          31846          67713          1.2138474e-11
       278   2068.6298         138156   41             32             38015          32319          67749          1.213247e-11 
       279   2086.4284         138534   39             32             37902          32783          67778          1.2149716e-11
       280   2104.557          138861   38             30             37777          33205          67811          1.2127075e-11
       281   2122.3935         139180   38             29             37634          33641          67838          1.2140619e-11
       282   2140.3424         139541   37             29             37529          34073          67873          1.214855e-11 
       283   2158.2855         139889   36             28             37390          34537          67898          1.2154188e-11
       284   2176.2404         140199   35             28             37262          34939          67935          1.2174343e-11
       285   2194.2444         140592   35             27             37224          35348          67958          1.2183044e-11
       286   2212.3378         140886   35             26             37068          35765          67992          1.2201153e-11
       287   2230.4779         141192   34             26             36902          36216          68014          1.2200799e-11
       288   2248.7159         141592   34             24             36862          36624          68048          1.220356e-11 
       289   2267.0423         141851   34             24             36722          36998          68073          1.2196278e-11
       290   2285.7384         142269   34             24             36752          37353          68106          1.2215317e-11
       291   2304.0471         142560   34             24             36624          37748          68130          1.2217969e-11
       292   2322.4589         142921   33             24             36556          38141          68167          1.2250102e-11
       293   2340.7809         143266   33             24             36516          38506          68187          1.226284e-11 
       294   2359.3417         143585   32             24             36450          38858          68221          1.2261678e-11
       295   2377.7972         144014   32             24             36518          39198          68242          1.2288721e-11
       296   2396.2814         144340   32             24             36458          39546          68280          1.2315069e-11
       297   2414.8131         144615   32             24             36380          39878          68301          1.2319257e-11
       298   2433.5846         144925   32             23             36331          40206          68333          1.2319138e-11
       299   2452.3349         145240   32             23             36232          40598          68355          1.2322919e-11
       300   2471.4943         145644   32             23             36253          40948          68388          1.2325449e-11
       301   2490.2824         145958   32             23             36216          41275          68412          1.2356936e-11
       302   2509.1831         146228   32             23             36113          41615          68445          1.2362851e-11
       303   2528.1516         146567   32             23             36108          41934          68470          1.23721e-11  
       304   2547.2203         146955   32             23             36129          42269          68502          1.2364219e-11
       305   2566.3096         147286   32             23             36131          42573          68527          1.2390776e-11
       306   2585.4864         147580   32             23             36071          42896          68558          1.2405816e-11
       307   2604.67           147866   32             23             35979          43249          68583          1.2408999e-11
       308   2623.885          148267   32             23             36035          43560          68617          1.2447867e-11
       309   2643.3467         148538   32             23             35974          43864          68645          1.2414387e-11
       310   2663.0091         148912   32             23             35960          44224          68673          1.2434038e-11
       311   2682.3988         149199   32             23             35868          44574          68702          1.2432507e-11
       312   2701.952          149532   32             23             35836          44913          68728          1.2460046e-11
       313   2721.662          149872   30             23             35829          45234          68756          1.2467164e-11
       314   2741.3072         150201   30             23             35819          45545          68784          1.2489784e-11
       315   2761.118          150486   29             23             35768          45854          68812          1.249681e-11 
       316   2780.9356         150930   29             23             35883          46155          68840          1.2499596e-11
       317   2800.7589         151214   29             23             35821          46476          68865          1.2513203e-11
       318   2820.6801         151506   29             23             35764          46796          68894          1.252158e-11 
       319   2840.5384         151811   29             23             35739          47098          68922          1.2535418e-11
       320   2860.8329         152145   29             23             35751          47394          68948          1.2546726e-11
Loop time of 2860.83 on 16 procs for 320 steps with 152145 atoms

97.9% CPU use with 16 MPI tasks x 1 OpenMP threads

MPI task timing breakdown:
Section |  min time  |  avg time  |  max time  |%varavg| %total
---------------------------------------------------------------
Pair    | 752.85     | 834.81     | 1049.3     | 287.5 | 29.18
Neigh   | 504.96     | 592.58     | 865.57     | 467.3 | 20.71
Comm    | 305.9      | 367.04     | 429.05     | 224.1 | 12.83
Output  | 39.721     | 39.721     | 39.722     |   0.0 |  1.39
Modify  | 465.31     | 1013.2     | 1193.5     | 692.8 | 35.42
Other   |            | 13.51      |            |       |  0.47

Nlocal:        9509.06 ave       13990 max        8241 min
Histogram: 10 2 0 0 2 0 0 0 0 2
Nghost:        7358.25 ave        9670 max        6387 min
Histogram: 7 3 0 1 1 0 2 0 0 2
Neighs:        93810.3 ave      106759 max       87866 min
Histogram: 3 5 3 0 1 1 1 0 1 1

Total # of neighbors = 1500965
Ave neighs/atom = 9.8653587
Neighbor list builds = 28144
Dangerous builds = 27824

Total wall time: 0:48:08
