LAMMPS (23 Jun 2022 - Update 4)
  using 1 OpenMP thread(s) per MPI task
package omp 0
using multi-threaded neighbor list subroutines
#-----------------------------------------------------------------------------#
#                NUFEB Simulation: Heterotrophic Biofilm Growth               #
#-----------------------------------------------------------------------------#


#-----------------------------System Settings---------------------------------#

units si                                    # using si units (m, s, kg)
atom_style      coccus                      # using nufeb coccus atom style
atom_modify     map array sort 10 0         # map array - find atoms using indices
		                            # sort every 10

boundary        pp pp ff                    # periodic boundaries in x and y
                                            # fixed boundary in z

newton          off                         # forces between local and ghost
                                            # atoms are computed in each
					     # processor without communication

processors      * * 1                       # processor grid

comm_modify     vel yes                     # communicate velocities for ghost atoms

read_data       atom_ch.in	             # read atom.in file which defines domain size
Reading data file ...
  orthogonal box = (0 0 0) to (6e-05 6e-05 6e-05)
  4 by 4 by 1 MPI processor grid
  reading atoms ...
  150 atoms
  read_data CPU = 0.020 seconds
                                            # and initial atoms


#--------------------Microbes and Functional Groups-------------------------#

group           CROSS1   type 1               # assign type 1,2 atoms to CROSS group
50 atoms in group CROSS1
group           CROSS2   type 2
50 atoms in group CROSS2
group		CHEATER  type 3
50 atoms in group CHEATER
group           dead     type 4
0 atoms in group dead
group		EPS	 type 5
0 atoms in group EPS

neighbor        5e-7 bin                   # setting neighbour skin distance and style

neigh_modify    check yes                  # rebuild neighbour list if any atom
                                           # had moved more than half the skin distance


#--------------------------Mesh Grid and Substrates--------------------------#

# defining grid sytle, substrate names, and grid size
grid_style      nufeb/chemostat 3 sub metab1 metab2 5e-6

# set diffusion boundary conditions and initial concentrations (liquid:kg/m3)
grid_modify     set sub      pp pp nd  1.8e-4
No /omp style for force computation currently active
grid_modify     set metab1   pp pp nd  1e-4
No /omp style for force computation currently active
grid_modify     set metab2   pp pp nd  1e-4
No /omp style for force computation currently active


#--------------------------Biological Processes-------------------------------#

# heterotrophs growth
fix growth_cross1 CROSS1 nufeb/growth/cross1 sub 3.5e-5 metab2 4e-3 metab1 growth 0.009 yield 0.6 decay 2.6e-6 metab1_exp 20 epsyield 0.12 epsdens 30

fix growth_cross2 CROSS2 nufeb/growth/cross2 sub 3.5e-5 metab1 4e-3 metab2 growth 0.009 yield 0.6 decay 2.6e-6 metab2_exp 20 epsyield 0.12 epsdens 30

fix growth_cheater CHEATER nufeb/growth/cheater sub 3.5e-5 metab1 1e-3 metab2 1e-3 growth 0.009 yield 0.6 decay 2.6e-6

# heterotrophs division, division diameter: 1.36e-6
fix div1 CROSS1 nufeb/division/coccus 1.36e-6 107
fix div2 CROSS2 nufeb/division/coccus 1.36e-6 122
fix div3 CHEATER nufeb/division/coccus 1.36e-6 145

fix death1 CROSS1 nufeb/death/diameter dead 5.43e-7
fix death2 CROSS2 nufeb/death/diameter dead 5.43e-7
fix death3 CHEATER nufeb/death/diameter dead 5.43e-7

# EPS secretion from heterotrophs
fix eps1 CROSS1 nufeb/eps_secretion 5 EPS 1.1 30 176
fix eps2 CROSS2 nufeb/eps_secretion 5 EPS 1.1 30 215

#---------------------------Physical Processes--------------------------------#

pair_style  gran/hooke/history 1e-4 NULL 1e-5 NULL 0.0 0    # pairwise interaction
pair_coeff  * *                                             # between atoms

# pairwise interaction between z-wall and atoms
fix wall all wall/gran hooke/history 1e-3 NULL 1e-4 NULL 0 0 zplane 0.0 1e-04

fix vis all viscous 1e-5                                    # viscous damping force

fix grav all gravity 9.81 vector 0.0 0.0 -1.0

fix nve all nve/limit 1e-7                                  # NVE integration with
                                                            # maximum distance limit


#---------------------------Post-Physical Processes---------------------------#

fix coeff_sub all nufeb/diffusion_coeff sub ratio 0.8       # defining diffusion coeff in the biofilm
fix coeff_metab1 all nufeb/diffusion_coeff metab1 ratio 0.8    # region is 80% of the value in liquid
fix coeff_metab2 all nufeb/diffusion_coeff metab2 ratio 0.8

#---------------------------Chemical Processes---------------------------------#

fix diff_sub all nufeb/diffusion_reaction sub 1e-9        # diffusion reaction for updating
fix diff_metab1 all nufeb/diffusion_reaction metab1 4e-9     # distribusion of substrate concentration
fix diff_metab2 all nufeb/diffusion_reaction metab2 4e-9

#--------------------------Computations and Outputs----------------------------#

variable mass equal "mass(all)"                             # total mass
variable ncross1 equal "count(CROSS1)"                      # total # of CROSS1
variable ncross2 equal "count(CROSS2)"                      # total # of CROSS2
variable ncheater equal "count(CHEATER)"
variable ndead equal "count(dead)"
variable neps equal "count(EPS)"

shell mkdir vtk_EPS_ch                                            # dump vtk files to /vtk folder
dump du1 all vtk 10 vtk_EPS_ch/dump*.vtu id type diameter         # require build NUFEB with vtk option
dump du2 all grid/vtk 10 vtk_EPS_ch/dump_%_*.vti con rea den gro

#dump du3 all movie 10 movie.avi type diameter view 80 60    # dump video
#dump_modify du3 acolor 1 blue acolor 2 lightgrey framerate 10


                                                            # dump hdf5 files to /hdf5 folder
#shell mkdir hdf5                                           # require build NUFEB with hdf5 option
#dump du3 all nufeb/hdf5 10 dump.h5 id type x y z vx vy vz fx fy fz radius conc reac

thermo_style custom step cpu atoms v_ncross1 v_ncross2 v_ncheater v_ndead v_neps v_mass     # screen and log outputs
thermo 1
thermo_modify   lost ignore

#-----------------------------------Run----------------------------------------#

# issue run command, define timesteps for physical (pairdt) and chemical (diffdt) processes
run_style nufeb diffdt 1e-4 difftol 1e-6 pairdt 1e-2 pairtol 1 pairmax 1000 diffmax 5000

timestep 12000                                               # define biological timesteps (1000s)

run 320                                                    # growing biofilm for 900x1000s
Generated 0 of 6 mixed pair_coeff terms from geometric mixing rule
Last active /omp style is pair_style gran/hooke/history/omp
Neighbor list info ...
  update every 1 steps, delay 10 steps, check yes
  max neighbors/atom: 2000, page size: 100000
  master list distance cutoff = 2.49e-06
  ghost atom cutoff = 2.49e-06
  binsize = 1.245e-06, bins = 49 49 49
  1 neighbor lists, perpetual/occasional/extra = 1 0 0
  (1) pair gran/hooke/history/omp, perpetual
      attributes: half, newton off, size, history, omp
      pair build: half/size/bin/newtoff/omp
      stencil: full/bin/3d
      bin: standard
Per MPI rank memory allocation (min/avg/max) = 11.02 | 11.02 | 11.02 Mbytes
   Step          CPU          Atoms      v_ncross1      v_ncross2      v_ncheater      v_ndead         v_neps         v_mass    
         0   0                    150   50             50             50             0              0              1.3295396e-13
         1   0.38564271           432   90             85             86             0              171            1.7273535e-13
         2   0.76650685           785   118            123            136            0              408            1.9517255e-13
         3   1.0942702           1123   129            146            177            0              671            2.1394999e-13
         4   1.4105828           1434   135            156            197            0              946            2.3162011e-13
         5   1.6295463           1760   143            165            216            0              1236           2.4893867e-13
         6   1.8177311           2091   148            172            234            0              1537           2.6609736e-13
         7   1.9988591           2435   157            180            252            0              1846           2.831069e-13 
         8   2.1376152           2791   165            189            269            0              2168           2.9974693e-13
         9   2.3007375           3148   170            195            289            0              2494           3.1598592e-13
        10   2.48859             3513   176            202            306            0              2829           3.3205178e-13
        11   2.6232316           3887   179            208            333            0              3167           3.4811865e-13
        12   2.7682229           4276   182            218            354            0              3522           3.6392723e-13
        13   2.8912381           4648   185            222            368            0              3873           3.7931445e-13
        14   3.005625            5037   191            226            385            0              4235           3.9440468e-13
        15   3.104738            5428   198            233            403            0              4594           4.0891793e-13
        16   3.2008934           5810   201            240            417            0              4952           4.2268906e-13
        17   3.3258279           6218   207            247            432            0              5332           4.3614936e-13
        18   3.4158415           6623   212            252            453            0              5706           4.4894117e-13
        19   3.5135195           7031   219            254            479            0              6079           4.6146851e-13
        20   3.6431381           7436   223            256            497            0              6460           4.7375095e-13
        21   3.7397805           7839   231            260            515            0              6833           4.853163e-13 
        22   3.8560636           8251   235            263            530            0              7223           4.9649325e-13
        23   3.9388695           8640   239            264            541            0              7596           5.071393e-13 
        24   4.0231734           9044   242            273            555            0              7974           5.1764234e-13
        25   4.1172813           9444   245            276            572            0              8351           5.2772816e-13
        26   4.2082991           9842   249            283            580            0              8730           5.3749129e-13
        27   4.3009376          10232   254            286            591            0              9101           5.467234e-13 
        28   4.3748007          10630   254            288            603            0              9485           5.5588618e-13
        29   4.4717387          11031   255            294            615            0              9867           5.647719e-13 
        30   4.6151068          11426   263            294            627            0              10242          5.7335532e-13
        31   4.7446179          11815   267            297            636            0              10615          5.8153724e-13
        32   4.8394333          12221   271            301            648            0              11001          5.8947127e-13
        33   4.9835501          12632   274            308            656            0              11394          5.9708557e-13
        34   5.1202953          13035   277            311            664            0              11783          6.0446381e-13
        35   5.257709           13432   280            315            673            0              12164          6.116179e-13 
        36   5.441145           13845   283            319            680            0              12563          6.1868721e-13
        37   5.6791231          14254   288            319            687            0              12960          6.2547634e-13
        38   5.8936015          14649   290            320            694            0              13345          6.3143825e-13
        39   6.1958384          15051   291            322            700            0              13738          6.373322e-13 
        40   6.7431419          15464   294            323            706            0              14141          6.4308092e-13
        41   7.1260137          15859   295            325            717            0              14522          6.4824503e-13
        42   7.5593474          16303   299            328            730            0              14946          6.5362509e-13
        43   8.2278441          16701   300            329            736            0              15336          6.5868396e-13
        44   9.1598686          17097   300            331            746            0              15720          6.635317e-13 
        45   10.077385          17517   302            331            755            0              16129          6.6903173e-13
        46   11.018824          17909   305            332            764            0              16508          6.743495e-13 
        47   12.005967          18325   306            333            775            0              16911          6.7991343e-13
        48   13.031781          18744   310            336            787            0              17311          6.8543786e-13
        49   14.057752          19141   312            336            797            0              17696          6.9122287e-13
        50   16.598934          19550   313            336            807            0              18094          6.9702159e-13
        51   17.636707          19950   317            339            820            0              18474          7.0240297e-13
        52   18.716558          20374   320            344            829            0              18881          7.0784462e-13
        53   19.830895          20771   323            344            840            0              19264          7.1348551e-13
        54   20.944296          21177   323            345            855            0              19654          7.1942134e-13
        55   22.082875          21614   325            349            873            0              20067          7.2536635e-13
        56   23.24041           22016   327            350            887            0              20452          7.3122955e-13
        57   24.421064          22424   327            353            899            0              20845          7.3725391e-13
        58   25.604748          22846   328            358            911            0              21249          7.4315525e-13
        59   26.820986          23269   330            359            926            0              21654          7.4908689e-13
        60   46.386847          23694   334            359            937            0              22064          7.5502377e-13
        61   47.639444          24095   338            361            945            1              22450          7.6053339e-13
        62   48.909548          24520   340            362            967            2              22849          7.6616488e-13
        63   50.208551          24953   342            363            982            2              23264          7.717969e-13 
        64   51.535514          25367   343            365            997            2              23660          7.7734649e-13
        65   52.882756          25788   344            366            1006           2              24070          7.8298213e-13
        66   54.203299          26204   345            370            1018           3              24468          7.8847928e-13
        67   55.583043          26630   346            372            1025           8              24879          7.9372335e-13
        68   56.996851          27030   347            374            1032           10             25267          7.9885499e-13
        69   58.436131          27463   348            374            1044           14             25683          8.0386799e-13
        70   60.00011           27885   349            378            1062           19             26077          8.0870125e-13
        71   61.524672          28328   350            378            1071           24             26505          8.1381767e-13
        72   63.097226          28733   352            379            1080           31             26891          8.1899346e-13
        73   64.748024          29150   352            380            1088           37             27293          8.2476837e-13
        74   66.412264          29573   353            381            1099           42             27698          8.3110375e-13
        75   68.107506          30012   356            382            1115           49             28110          8.3788266e-13
        76   69.872077          30417   359            383            1126           54             28495          8.4450488e-13
        77   71.646768          30868   361            384            1142           59             28922          8.5189553e-13
        78   73.508295          31278   361            385            1151           65             29316          8.5943747e-13
        79   75.347656          31710   361            386            1175           71             29717          8.6796731e-13
        80   77.308101          32117   361            386            1192           76             30102          8.7649915e-13
        81   79.19913           32570   363            388            1221           80             30518          8.8534378e-13
        82   81.110206          32981   364            389            1238           85             30905          8.9416725e-13
        83   83.043677          33419   364            390            1265           90             31310          9.0336064e-13
        84   85.024756          33823   365            391            1290           96             31681          9.1245766e-13
        85   87.025567          34285   365            391            1313           105            32111          9.2208383e-13
        86   89.067904          34687   366            393            1328           117            32483          9.3143351e-13
        87   91.127083          35139   366            394            1356           126            32897          9.4121424e-13
        88   93.23852           35539   366            396            1368           138            33271          9.5100018e-13
        89   95.357554          35983   367            398            1388           145            33685          9.6102029e-13
        90   97.704938          36411   368            398            1422           148            34075          9.7105456e-13
        91   99.958678          36847   369            399            1456           151            34472          9.8189539e-13
        92   102.21174          37256   369            399            1494           153            34841          9.9315483e-13
        93   104.59419          37698   369            399            1519           161            35250          1.0047738e-12
        94   107.01351          38107   369            400            1544           176            35618          1.0173047e-12
        95   109.50378          38556   370            400            1587           184            36015          1.0309007e-12
        96   112.09516          38972   370            401            1631           190            36380          1.0453026e-12
        97   114.66654          39394   370            401            1670           196            36757          1.0609702e-12
        98   117.30099          39822   370            401            1727           202            37122          1.077166e-12 
        99   119.90812          40236   370            401            1759           221            37485          1.094007e-12 
       100   122.68419          40651   370            401            1805           230            37845          1.1110194e-12
       101   125.37832          41069   370            401            1851           236            38211          1.1283586e-12
       102   128.14095          41478   370            401            1914           248            38545          1.1457676e-12
       103   130.96245          41900   372            401            1949           262            38916          1.1637116e-12
       104   133.77769          42304   372            403            1999           272            39258          1.1816361e-12
       105   136.62807          42726   372            403            2043           295            39613          1.1993018e-12
       106   139.58954          43133   373            403            2096           307            39954          1.216896e-12 
       107   142.58283          43552   373            403            2154           323            40299          1.2347546e-12
       108   145.67517          43946   374            403            2205           336            40628          1.2522867e-12
       109   148.86683          44368   374            403            2266           353            40972          1.271061e-12 
       110   152.18757          44763   375            403            2324           367            41294          1.2903387e-12
       111   155.46004          45179   376            403            2393           376            41631          1.3102081e-12
       112   158.78878          45582   377            403            2453           390            41959          1.3304115e-12
       113   162.14696          45963   377            403            2505           401            42277          1.3510483e-12
       114   165.53409          46371   379            403            2560           413            42616          1.3718017e-12
       115   168.96716          46772   380            403            2638           425            42926          1.3922564e-12
       116   172.44782          47182   380            403            2702           440            43257          1.4126562e-12
       117   176.02814          47580   380            403            2764           449            43584          1.4327637e-12
       118   179.62156          47973   381            403            2829           461            43899          1.4533768e-12
       119   183.30506          48385   381            403            2904           472            44225          1.473744e-12 
       120   187.2697           48776   381            403            2974           485            44533          1.493826e-12 
       121   191.13591          49171   382            403            3042           494            44850          1.5147134e-12
       122   195.04289          49578   385            403            3130           497            45163          1.5362538e-12
       123   199.01495          49974   386            403            3203           508            45474          1.5577978e-12
       124   203.08097          50389   386            404            3284           519            45796          1.5800938e-12
       125   207.19704          50769   387            404            3360           524            46094          1.6029764e-12
       126   211.34583          51167   388            404            3432           535            46408          1.6261133e-12
       127   215.53725          51542   388            404            3521           543            46686          1.6490115e-12
       128   219.77436          51948   388            405            3606           555            46994          1.6716205e-12
       129   224.13797          52355   388            405            3681           564            47317          1.6939944e-12
       130   228.70124          52712   388            405            3757           581            47581          1.7164135e-12
       131   233.22651          53127   389            405            3846           597            47890          1.7385406e-12
       132   237.82379          53513   391            405            3934           605            48178          1.7608346e-12
       133   242.5412           53891   391            405            4013           625            48457          1.7836246e-12
       134   247.28315          54315   392            406            4091           647            48779          1.8072639e-12
       135   252.0931           54679   395            406            4173           664            49041          1.8316954e-12
       136   256.96538          55084   397            406            4265           681            49335          1.856351e-12 
       137   261.89952          55503   397            406            4355           712            49633          1.8813338e-12
       138   266.89884          55874   398            406            4413           744            49913          1.9062083e-12
       139   271.99717          56247   397            406            4498           770            50176          1.9307171e-12
       140   277.32872          56668   399            407            4587           790            50485          1.9551639e-12
       141   282.60118          57089   398            406            4672           823            50790          1.9799325e-12
       142   287.97252          57473   399            406            4764           849            51055          2.0046843e-12
       143   293.3876           57853   400            406            4842           877            51328          2.0295381e-12
       144   298.87201          58288   402            406            4934           908            51638          2.0555666e-12
       145   304.44271          58669   403            406            4995           950            51915          2.0823963e-12
       146   310.07128          59056   403            405            5082           980            52186          2.110443e-12 
       147   315.76169          59470   403            405            5178           1015           52469          2.1389235e-12
       148   321.56182          59888   404            405            5271           1057           52751          2.1673694e-12
       149   327.43772          60305   403            406            5344           1100           53052          2.1959192e-12
       150   333.53802          60699   402            405            5424           1144           53324          2.2241984e-12
       151   339.59597          61112   403            404            5514           1186           53605          2.2528221e-12
       152   345.75426          61532   404            406            5603           1227           53892          2.2810209e-12
       153   351.99177          61959   405            406            5687           1269           54192          2.3099915e-12
       154   358.3324           62386   406            406            5778           1324           54472          2.3397382e-12
       155   364.80106          62826   407            406            5872           1371           54770          2.3714851e-12
       156   371.3563           63252   407            406            5982           1410           55047          2.4040628e-12
       157   378.01654          63710   410            406            6089           1445           55360          2.4374495e-12
       158   384.74878          64102   410            405            6181           1488           55618          2.4721708e-12
       159   391.57084          64558   410            405            6288           1542           55913          2.5078662e-12
       160   398.64313          65001   410            406            6383           1582           56220          2.543667e-12 
       161   405.67034          65460   410            405            6513           1630           56502          2.5803544e-12
       162   412.81208          65928   410            405            6633           1674           56806          2.6184155e-12
       163   420.0639           66392   410            405            6754           1721           57102          2.6568479e-12
       164   427.41518          66856   409            404            6891           1764           57388          2.6962101e-12
       165   434.89165          67354   408            404            7034           1814           57694          2.7377988e-12
       166   442.45601          67849   408            404            7188           1857           57992          2.7811893e-12
       167   450.08657          68323   408            403            7336           1892           58284          2.8264987e-12
       168   457.82839          68826   407            402            7513           1935           58569          2.8730554e-12
       169   465.69195          69337   407            402            7677           1981           58870          2.9211828e-12
       170   473.82605          69836   408            402            7838           2026           59162          2.9704352e-12
       171   481.9407           70373   408            401            8016           2063           59485          3.0199209e-12
       172   490.16173          70882   408            400            8195           2117           59762          3.0704363e-12
       173   498.49191          71414   408            400            8378           2149           60079          3.1227512e-12
       174   506.94255          71944   408            399            8578           2190           60369          3.1778361e-12
       175   515.5004           72483   408            399            8773           2228           60675          3.2344864e-12
       176   524.18503          73058   406            399            9016           2265           60972          3.2943078e-12
       177   532.99716          73645   406            398            9237           2319           61285          3.3574386e-12
       178   541.94438          74191   405            398            9428           2376           61584          3.4229271e-12
       179   551.03126          74760   405            398            9647           2437           61873          3.491361e-12 
       180   560.44588          75353   405            398            9885           2495           62170          3.5629779e-12
       181   569.83217          75964   404            396            10124          2559           62481          3.6372912e-12
       182   579.4019           76556   404            396            10344          2632           62780          3.714579e-12 
       183   589.07917          77213   404            395            10607          2709           63098          3.795366e-12 
       184   598.96181          77838   404            394            10879          2778           63383          3.8814008e-12
       185   608.99965          78513   404            394            11160          2857           63698          3.9750893e-12
       186   619.20526          79142   404            394            11420          2942           63982          4.0777338e-12
       187   629.59781          79850   404            394            11730          3030           64292          4.1892598e-12
       188   640.21082          80573   404            393            12074          3106           64596          4.312462e-12 
       189   651.00591          81334   404            393            12443          3208           64886          4.4453217e-12
       190   662.20658          82078   404            393            12816          3286           65179          4.5822181e-12
       191   673.46889          82859   404            393            13207          3371           65484          4.7246493e-12
       192   684.96788          83689   403            393            13653          3460           65780          4.8690256e-12
       193   696.64675          84423   403            392            14028          3541           66059          5.0092133e-12
       194   708.51955          85226   402            392            14466          3608           66358          5.1509211e-12
       195   720.6004           86064   402            391            14921          3690           66660          5.2945186e-12
       196   732.90923          86838   401            391            15365          3776           66905          5.439166e-12 
       197   745.37441          87681   401            390            15832          3852           67206          5.5902827e-12
       198   757.99905          88515   400            389            16314          3935           67477          5.7481187e-12
       199   770.791            89310   400            388            16762          4013           67747          5.8914419e-12
       200   783.94291          90122   400            386            17241          4084           68011          6.0533804e-12
       201   797.00045          90996   400            385            17777          4161           68273          6.2130579e-12
       202   810.22441          91880   399            385            18327          4231           68538          6.3723637e-12
       203   823.58545          92755   399            384            18879          4301           68792          6.5356978e-12
       204   837.03925          93633   399            383            19443          4379           69029          6.7034319e-12
       205   850.60729          94577   399            382            20032          4478           69286          6.8775577e-12
       206   864.2495           95487   398            382            20596          4563           69548          7.0497182e-12
       207   878.03552          96340   397            381            21157          4646           69759          7.218355e-12 
       208   891.90422          97254   396            380            21744          4737           69997          7.4009937e-12
       209   905.85086          98220   395            379            22377          4822           70247          7.5889408e-12
       210   920.13544          99165   393            378            22991          4944           70459          7.7790259e-12
       211   934.28043         100047   393            376            23555          5057           70666          7.9708348e-12
       212   948.50521         100980   393            376            24138          5193           70880          8.1652384e-12
       213   962.97053         101945   392            376            24754          5333           71090          8.3646681e-12
       214   977.38205         102951   391            374            25429          5487           71270          8.5642163e-12
       215   991.90019         103931   390            373            26050          5665           71453          8.7854077e-12
       216   1006.4928         104854   388            371            26650          5826           71619          8.9825258e-12
       217   1021.2299         105853   386            370            27269          6018           71810          9.1838518e-12
       218   1036.0564         106821   383            366            27856          6251           71965          9.3914677e-12
       219   1050.9582         107765   380            361            28432          6476           72116          9.5897974e-12
       220   1066.2288         108775   379            358            29087          6710           72241          9.8175532e-12
       221   1081.2383         109719   377            356            29631          6974           72381          1.0005449e-11
       222   1096.2341         110585   375            351            30084          7263           72512          1.0194278e-11
       223   1111.3211         111572   372            345            30680          7544           72631          1.0392979e-11
       224   1126.5084         112517   369            341            31196          7861           72750          1.0575708e-11
       225   1141.7865         113424   364            336            31716          8172           72836          1.0753852e-11
       226   1157.129          114236   362            331            32155          8455           72933          1.0920712e-11
       227   1172.5445         115134   360            322            32650          8784           73018          1.1099867e-11
       228   1188.0314         115961   357            318            33136          9050           73100          1.1236705e-11
       229   1203.6342         116726   352            311            33535          9355           73173          1.1364182e-11
       230   1219.6077         117556   347            304            34050          9609           73246          1.1501049e-11
       231   1235.343          118294   342            299            34472          9867           73314          1.160532e-11 
       232   1251.0966         118945   338            294            34844          10092          73377          1.1710858e-11
       233   1266.8967         119674   334            284            35300          10326          73430          1.1795792e-11
       234   1282.7673         120283   330            274            35659          10528          73492          1.1849717e-11
       235   1298.6671         120910   327            271            36045          10714          73553          1.1912507e-11
       236   1314.701          121681   321            268            36619          10872          73601          1.2008214e-11
       237   1330.7635         122247   312            262            36970          11057          73646          1.2066272e-11
       238   1346.9081         122764   307            257            37232          11271          73697          1.2103745e-11
       239   1363.1397         123388   298            247            37608          11507          73728          1.2145593e-11
       240   1379.737          123928   294            238            37861          11766          73769          1.2162494e-11
       241   1396.1076         124530   289            231            38172          12029          73809          1.220891e-11 
       242   1412.568          125098   287            224            38435          12299          73853          1.2235456e-11
       243   1429.0943         125562   276            214            38558          12624          73890          1.2239644e-11
       244   1445.6549         126014   265            207            38660          12961          73921          1.2252033e-11
       245   1462.2952         126513   260            196            38810          13284          73963          1.2262518e-11
       246   1479.0034         127059   250            191            39024          13591          74003          1.2263718e-11
       247   1495.8091         127549   246            184            39125          13955          74039          1.2287623e-11
       248   1512.6437         127983   239            171            39196          14294          74083          1.2276717e-11
       249   1529.5556         128418   230            164            39282          14633          74109          1.2276675e-11
       250   1546.8599         128925   222            155            39463          14943          74142          1.2280123e-11
       251   1563.9755         129306   216            149            39496          15268          74177          1.2267507e-11
       252   1581.1012         129744   206            143            39557          15620          74218          1.2242164e-11
       253   1598.3626         130206   194            137            39682          15941          74252          1.2249689e-11
       254   1615.6858         130640   187            133            39779          16251          74290          1.2251427e-11
       255   1633.0834         131101   178            128            39946          16520          74329          1.2263447e-11
       256   1650.5311         131534   176            124            39982          16885          74367          1.2249747e-11
       257   1668.1079         131959   169            116            40038          17224          74412          1.2224276e-11
       258   1685.7381         132343   159            106            40064          17577          74437          1.2225641e-11
       259   1703.4161         132756   155            103            40132          17891          74475          1.2218009e-11
       260   1721.4559         133181   144            100            40222          18208          74507          1.2212195e-11
       261   1739.2987         133569   139            95             40237          18546          74552          1.2212354e-11
       262   1757.1117         134070   128            91             40370          18893          74588          1.2219789e-11
       263   1775.0018         134410   122            87             40335          19246          74620          1.2186133e-11
       264   1792.9531         134854   118            84             40436          19557          74659          1.2205009e-11
       265   1810.8774         135214   113            77             40421          19901          74702          1.2193333e-11
       266   1828.9422         135686   106            75             40548          20217          74740          1.2184399e-11
       267   1847.1487         136040   98             71             40543          20557          74771          1.2173655e-11
       268   1865.3976         136430   95             67             40588          20881          74799          1.2166689e-11
       269   1883.7713         136832   89             62             40596          21240          74845          1.2174161e-11
       270   1902.4836         137247   81             57             40623          21606          74880          1.2146607e-11
       271   1920.942          137650   77             54             40661          21946          74912          1.2166074e-11
       272   1939.4953         138048   76             52             40691          22279          74950          1.2152864e-11
       273   1958.111          138469   73             51             40734          22625          74986          1.2141762e-11
       274   1976.7728         138854   70             49             40765          22949          75021          1.2157432e-11
       275   1995.4883         139214   65             48             40746          23302          75053          1.2144457e-11
       276   2014.2437         139579   63             48             40709          23670          75089          1.2152639e-11
       277   2033.0585         139993   57             46             40724          24049          75117          1.2162501e-11
       278   2051.9837         140361   55             42             40643          24470          75151          1.2137588e-11
       279   2070.959          140765   54             37             40619          24870          75185          1.2129894e-11
       280   2090.3208         141092   53             35             40551          25241          75212          1.2137242e-11
       281   2109.3575         141428   50             33             40450          25650          75245          1.2134994e-11
       282   2128.4562         141812   48             32             40392          26065          75275          1.2135386e-11
       283   2147.6054         142204   48             32             40323          26500          75301          1.2139894e-11
       284   2166.813          142608   47             31             40254          26940          75336          1.2153006e-11
       285   2186.054          142948   47             28             40084          27422          75367          1.2140783e-11
       286   2205.3132         143314   47             27             39921          27921          75398          1.21421e-11  
       287   2224.6633         143636   44             25             39763          28375          75429          1.2142081e-11
       288   2244.0782         144062   43             25             39698          28840          75456          1.2177915e-11
       289   2263.5374         144405   43             24             39496          29352          75490          1.2162858e-11
       290   2283.413          144703   43             24             39277          29841          75518          1.2137283e-11
       291   2302.9562         145135   42             24             39176          30345          75548          1.2167724e-11
       292   2322.5879         145457   38             24             38967          30850          75578          1.2175997e-11
       293   2342.3125         145875   37             23             38849          31358          75608          1.2181681e-11
       294   2362.0832         146169   37             23             38670          31808          75631          1.2182028e-11
       295   2381.9597         146545   37             23             38527          32293          75665          1.2198623e-11
       296   2401.8754         146859   36             23             38347          32764          75689          1.2200921e-11
       297   2421.8547         147278   35             23             38249          33248          75723          1.2203199e-11
       298   2441.8989         147593   34             23             38065          33724          75747          1.2193924e-11
       299   2462.0331         147904   33             23             37910          34159          75779          1.2205407e-11
       300   2482.5422         148231   32             22             37742          34633          75802          1.2219177e-11
       301   2502.7848         148562   31             22             37609          35068          75832          1.2230181e-11
       302   2523.089          148947   31             22             37527          35510          75857          1.2222454e-11
       303   2543.3003         149308   31             22             37450          35919          75886          1.2257035e-11
       304   2563.6951         149551   31             22             37250          36339          75909          1.2241421e-11
       305   2584.2212         149899   31             21             37140          36766          75941          1.2239653e-11
       306   2604.8119         150305   30             21             37109          37182          75963          1.2283598e-11
       307   2625.3565         150657   30             21             37041          37572          75993          1.2264281e-11
       308   2646.0749         151037   29             21             37013          37956          76018          1.2284276e-11
       309   2666.7358         151386   29             21             36961          38330          76045          1.2321987e-11
       310   2687.7487         151623   29             21             36788          38716          76069          1.2318632e-11
       311   2708.7127         151982   28             21             36772          39060          76101          1.2314807e-11
       312   2729.6206         152347   28             21             36742          39433          76123          1.2330421e-11
       313   2750.6257         152675   28             21             36637          39837          76152          1.2326485e-11
       314   2771.5945         153067   28             21             36648          40195          76175          1.2352542e-11
       315   2792.71           153346   28             21             36551          40542          76204          1.2358877e-11
       316   2813.8492         153653   28             21             36450          40927          76227          1.2370692e-11
       317   2835.0284         153911   28             21             36324          41281          76257          1.2378961e-11
       318   2856.3251         154247   28             21             36303          41617          76278          1.2359318e-11
       319   2877.6095         154667   28             21             36351          41958          76309          1.2381274e-11
       320   2899.2501         154952   28             21             36285          42286          76332          1.2392847e-11
Loop time of 2899.25 on 16 procs for 320 steps with 154952 atoms

97.8% CPU use with 16 MPI tasks x 1 OpenMP threads

MPI task timing breakdown:
Section |  min time  |  avg time  |  max time  |%varavg| %total
---------------------------------------------------------------
Pair    | 768.53     | 856.53     | 1048.9     | 256.9 | 29.54
Neigh   | 519.71     | 613.75     | 886.33     | 411.6 | 21.17
Comm    | 332        | 383.54     | 462.5      | 198.0 | 13.23
Output  | 25.627     | 25.628     | 25.628     |   0.0 |  0.88
Modify  | 463.46     | 1006.2     | 1178.8     | 639.2 | 34.71
Other   |            | 13.56      |            |       |  0.47

Nlocal:         9684.5 ave       14148 max        8366 min
Histogram: 10 1 1 1 1 0 0 0 0 2
Nghost:        7483.69 ave        9749 max        6538 min
Histogram: 9 1 0 1 1 0 2 0 0 2
Neighs:        94810.8 ave      110008 max       88523 min
Histogram: 5 3 2 1 1 2 1 0 0 1

Total # of neighbors = 1516972
Ave neighs/atom = 9.7899479
Neighbor list builds = 28109
Dangerous builds = 27789

Total wall time: 0:48:49
