LAMMPS (23 Jun 2022 - Update 4)
  using 1 OpenMP thread(s) per MPI task
package omp 0
using multi-threaded neighbor list subroutines
#-----------------------------------------------------------------------------#
#                NUFEB Simulation: Heterotrophic Biofilm Growth               #
#-----------------------------------------------------------------------------#


#-----------------------------System Settings---------------------------------#

units si                                    # using si units (m, s, kg)
atom_style      coccus                      # using nufeb coccus atom style
atom_modify     map array sort 10 0         # map array - find atoms using indices
		                            # sort every 10

boundary        pp pp ff                    # periodic boundaries in x and y
                                            # fixed boundary in z

newton          off                         # forces between local and ghost
                                            # atoms are computed in each
					     # processor without communication

processors      * * 1                       # processor grid

comm_modify     vel yes                     # communicate velocities for ghost atoms

read_data       atom_ch.in	             # read atom.in file which defines domain size
Reading data file ...
  orthogonal box = (0 0 0) to (6e-05 6e-05 6e-05)
  4 by 4 by 1 MPI processor grid
  reading atoms ...
  150 atoms
  read_data CPU = 0.016 seconds
                                            # and initial atoms


#--------------------Microbes and Functional Groups-------------------------#

group           CROSS1   type 1               # assign type 1,2 atoms to CROSS group
50 atoms in group CROSS1
group           CROSS2   type 2
50 atoms in group CROSS2
group		CHEATER  type 3
50 atoms in group CHEATER
group           dead     type 4
0 atoms in group dead
group		EPS	 type 5
0 atoms in group EPS

neighbor        5e-7 bin                   # setting neighbour skin distance and style

neigh_modify    check yes                  # rebuild neighbour list if any atom
                                           # had moved more than half the skin distance


#--------------------------Mesh Grid and Substrates--------------------------#

# defining grid sytle, substrate names, and grid size
grid_style      nufeb/chemostat 3 sub metab1 metab2 5e-6

# set diffusion boundary conditions and initial concentrations (liquid:kg/m3)
grid_modify     set sub      pp pp nd  1.8e-4
No /omp style for force computation currently active
grid_modify     set metab1   pp pp nd  1e-4
No /omp style for force computation currently active
grid_modify     set metab2   pp pp nd  1e-4
No /omp style for force computation currently active


#--------------------------Biological Processes-------------------------------#

# heterotrophs growth
fix growth_cross1 CROSS1 nufeb/growth/cross1 sub 3.5e-5 metab2 4e-3 metab1 growth 0.009 yield 0.6 decay 2.6e-6 metab1_exp 20 epsyield 0.12 epsdens 30

fix growth_cross2 CROSS2 nufeb/growth/cross2 sub 3.5e-5 metab1 4e-3 metab2 growth 0.009 yield 0.6 decay 2.6e-6 metab2_exp 20 epsyield 0.12 epsdens 30

fix growth_cheater CHEATER nufeb/growth/cheater sub 3.5e-5 metab1 1e-3 metab2 1e-3 growth 0.009 yield 0.6 decay 2.6e-6

# heterotrophs division, division diameter: 1.36e-6
fix div1 CROSS1 nufeb/division/coccus 1.36e-6 503
fix div2 CROSS2 nufeb/division/coccus 1.36e-6 1706
fix div3 CHEATER nufeb/division/coccus 1.36e-6 3709

fix death1 CROSS1 nufeb/death/diameter dead 5.43e-7
fix death2 CROSS2 nufeb/death/diameter dead 5.43e-7
fix death3 CHEATER nufeb/death/diameter dead 5.43e-7

# EPS secretion from heterotrophs
fix eps1 CROSS1 nufeb/eps_secretion 5 EPS 1.1 30 6512
fix eps2 CROSS2 nufeb/eps_secretion 5 EPS 1.1 30 10115

#---------------------------Physical Processes--------------------------------#

pair_style  gran/hooke/history 1e-4 NULL 1e-5 NULL 0.0 0    # pairwise interaction
pair_coeff  * *                                             # between atoms

# pairwise interaction between z-wall and atoms
fix wall all wall/gran hooke/history 1e-3 NULL 1e-4 NULL 0 0 zplane 0.0 1e-04

fix vis all viscous 1e-5                                    # viscous damping force

fix grav all gravity 9.81 vector 0.0 0.0 -1.0

fix nve all nve/limit 1e-7                                  # NVE integration with
                                                            # maximum distance limit


#---------------------------Post-Physical Processes---------------------------#

fix coeff_sub all nufeb/diffusion_coeff sub ratio 0.8       # defining diffusion coeff in the biofilm
fix coeff_metab1 all nufeb/diffusion_coeff metab1 ratio 0.8    # region is 80% of the value in liquid
fix coeff_metab2 all nufeb/diffusion_coeff metab2 ratio 0.8

#---------------------------Chemical Processes---------------------------------#

fix diff_sub all nufeb/diffusion_reaction sub 1e-9        # diffusion reaction for updating
fix diff_metab1 all nufeb/diffusion_reaction metab1 4e-9     # distribusion of substrate concentration
fix diff_metab2 all nufeb/diffusion_reaction metab2 4e-9

#--------------------------Computations and Outputs----------------------------#

variable mass equal "mass(all)"                             # total mass
variable ncross1 equal "count(CROSS1)"                      # total # of CROSS1
variable ncross2 equal "count(CROSS2)"                      # total # of CROSS2
variable ncheater equal "count(CHEATER)"
variable ndead equal "count(dead)"
variable neps equal "count(EPS)"

shell mkdir vtk_EPS_ch                                            # dump vtk files to /vtk folder
dump du1 all vtk 10 vtk_EPS_ch/dump*.vtu id type diameter         # require build NUFEB with vtk option
dump du2 all grid/vtk 10 vtk_EPS_ch/dump_%_*.vti con rea den gro

#dump du3 all movie 10 movie.avi type diameter view 80 60    # dump video
#dump_modify du3 acolor 1 blue acolor 2 lightgrey framerate 10


                                                            # dump hdf5 files to /hdf5 folder
#shell mkdir hdf5                                           # require build NUFEB with hdf5 option
#dump du3 all nufeb/hdf5 10 dump.h5 id type x y z vx vy vz fx fy fz radius conc reac

thermo_style custom step cpu atoms v_ncross1 v_ncross2 v_ncheater v_ndead v_neps v_mass     # screen and log outputs
thermo 1
thermo_modify   lost ignore

#-----------------------------------Run----------------------------------------#

# issue run command, define timesteps for physical (pairdt) and chemical (diffdt) processes
run_style nufeb diffdt 1e-4 difftol 1e-6 pairdt 1e-2 pairtol 1 pairmax 1000 diffmax 5000

timestep 12000                                               # define biological timesteps (1000s)

run 320                                                    # growing biofilm for 900x1000s
Generated 0 of 6 mixed pair_coeff terms from geometric mixing rule
Last active /omp style is pair_style gran/hooke/history/omp
Neighbor list info ...
  update every 1 steps, delay 10 steps, check yes
  max neighbors/atom: 2000, page size: 100000
  master list distance cutoff = 2.49e-06
  ghost atom cutoff = 2.49e-06
  binsize = 1.245e-06, bins = 49 49 49
  1 neighbor lists, perpetual/occasional/extra = 1 0 0
  (1) pair gran/hooke/history/omp, perpetual
      attributes: half, newton off, size, history, omp
      pair build: half/size/bin/newtoff/omp
      stencil: full/bin/3d
      bin: standard
Per MPI rank memory allocation (min/avg/max) = 11.02 | 11.02 | 11.02 Mbytes
   Step          CPU          Atoms      v_ncross1      v_ncross2      v_ncheater      v_ndead         v_neps         v_mass    
         0   0                    150   50             50             50             0              0              1.3295396e-13
         1   0.38361999           432   90             85             86             0              171            1.7273643e-13
         2   0.76725831           795   117            126            138            0              414            1.9539463e-13
         3   1.0950999           1110   128            140            178            0              664            2.1462098e-13
         4   1.4021067           1416   138            145            200            0              933            2.3261421e-13
         5   1.6195178           1731   140            156            216            0              1219           2.5011413e-13
         6   1.7970415           2057   147            164            236            0              1510           2.6729276e-13
         7   1.9712743           2410   156            174            258            0              1822           2.8463677e-13
         8   2.1658725           2771   166            182            278            0              2145           3.017292e-13 
         9   2.3197763           3140   171            192            299            0              2478           3.1854675e-13
        10   2.5937914           3511   176            201            318            0              2816           3.3524457e-13
        11   2.7119149           3888   181            209            344            0              3154           3.5139713e-13
        12   2.8204591           4291   184            221            365            0              3521           3.673607e-13 
        13   2.9486804           4664   190            224            377            0              3873           3.8267705e-13
        14   3.0560021           5058   197            230            402            0              4229           3.9769024e-13
        15   3.1692867           5457   200            232            428            0              4597           4.124295e-13 
        16   3.260301            5850   205            236            447            0              4962           4.2656497e-13
        17   3.3630879           6251   214            239            456            0              5342           4.4030271e-13
        18   3.4565571           6658   216            245            472            0              5725           4.5378609e-13
        19   3.5395629           7058   226            247            491            0              6094           4.6683989e-13
        20   20.364138           7468   233            250            510            0              6475           4.7913575e-13
        21   20.464994           7868   237            254            522            0              6855           4.9116993e-13
        22   20.561118           8279   242            262            537            0              7238           5.031096e-13 
        23   20.67947            8684   245            264            554            0              7621           5.1457368e-13
        24   20.789049           9100   249            271            573            0              8007           5.2565725e-13
        25   20.884152           9504   251            274            585            0              8394           5.3657082e-13
        26   20.976636           9905   255            275            608            0              8767           5.4708102e-13
        27   21.081409          10313   259            277            627            0              9150           5.5743642e-13
        28   21.194676          10717   263            278            643            0              9533           5.674333e-13 
        29   21.314627          11106   266            280            663            0              9897           5.7704008e-13
        30   37.30088           11505   266            283            678            0              10278          5.8647527e-13
        31   37.406484          11889   272            286            687            0              10644          5.9541843e-13
        32   37.538074          12281   275            288            700            0              11018          6.04277e-13  
        33   37.689249          12692   277            291            719            0              11405          6.1299873e-13
        34   37.879156          13067   280            296            730            0              11761          6.2051862e-13
        35   38.083369          13458   281            298            736            0              12143          6.2770067e-13
        36   38.227278          13840   284            300            751            0              12505          6.3462658e-13
        37   38.449336          14243   287            303            760            0              12893          6.4151146e-13
        38   38.797856          14608   288            305            767            0              13248          6.479966e-13 
        39   39.052385          15025   289            310            779            0              13647          6.5401565e-13
        40   39.59606           15419   292            314            787            0              14026          6.5979826e-13
        41   40.146696          15812   296            316            793            0              14407          6.6530764e-13
        42   40.656295          16222   299            317            804            0              14802          6.7097297e-13
        43   41.280461          16611   301            319            813            0              15178          6.7609236e-13
        44   42.129638          17012   304            321            822            0              15565          6.8089535e-13
        45   42.996991          17420   306            321            831            0              15962          6.8576666e-13
        46   43.863917          17808   309            324            839            0              16336          6.9040001e-13
        47   44.794741          18206   314            324            842            0              16726          6.94806e-13  
        48   45.731473          18616   318            327            844            0              17127          6.9904042e-13
        49   46.690994          19018   318            333            850            0              17517          7.0282551e-13
        50   47.700735          19443   319            334            861            0              17929          7.0646788e-13
        51   48.692985          19846   322            337            869            0              18318          7.099293e-13 
        52   49.674215          20244   323            337            875            0              18709          7.1310325e-13
        53   50.690096          20659   325            337            878            1              19118          7.1636776e-13
        54   51.727681          21057   325            337            883            1              19511          7.1944221e-13
        55   52.784421          21454   328            338            890            1              19897          7.2238462e-13
        56   53.870791          21885   331            341            892            1              20320          7.2534752e-13
        57   55.012645          22276   332            343            899            1              20701          7.2815938e-13
        58   56.161934          22693   334            349            905            1              21104          7.3105246e-13
        59   57.320076          23114   339            349            910            2              21514          7.338074e-13 
        60   58.593235          23540   339            351            914            2              21934          7.3643693e-13
        61   59.835553          23933   341            351            915            2              22324          7.3867252e-13
        62   61.071882          24356   342            354            917            4              22739          7.4120211e-13
        63   62.342001          24774   345            355            920            5              23149          7.43852e-13  
        64   63.649344          25203   347            359            925            5              23567          7.4660984e-13
        65   64.938248          25633   348            361            925            9              23990          7.489878e-13 
        66   66.284939          26050   349            361            928            10             24402          7.5141638e-13
        67   67.663804          26462   350            363            929            15             24805          7.5408524e-13
        68   69.068554          26903   351            365            929            19             25239          7.5702848e-13
        69   70.514492          27314   356            365            937            22             25634          7.6009592e-13
        70   72.062266          27755   357            369            941            26             26062          7.6373817e-13
        71   73.557295          28159   358            370            945            29             26457          7.6729463e-13
        72   75.093938          28600   360            373            956            32             26879          7.7137728e-13
        73   76.641177          29034   362            373            964            34             27301          7.7589598e-13
        74   78.227701          29444   364            374            967            39             27700          7.8031505e-13
        75   79.863859          29877   365            375            973            44             28120          7.8492548e-13
        76   81.521423          30299   366            379            990            47             28517          7.8980236e-13
        77   83.164147          30753   368            379            995            54             28957          7.9479733e-13
        78   84.863194          31145   368            381            1003           57             29336          7.9940741e-13
        79   86.583008          31599   372            383            1009           62             29773          8.0477572e-13
        80   88.42386           32041   376            383            1018           73             30191          8.0993929e-13
        81   90.233073          32481   377            383            1025           80             30616          8.1514245e-13
        82   92.120067          32904   378            383            1028           86             31029          8.205305e-13 
        83   94.030531          33335   378            384            1040           91             31442          8.2654479e-13
        84   96.047725          33764   379            385            1048           98             31854          8.3297952e-13
        85   98.089088          34210   380            386            1055           110            32279          8.404466e-13 
        86   100.17727          34615   381            386            1073           115            32660          8.4869819e-13
        87   102.32243          35085   384            386            1089           122            33104          8.5823797e-13
        88   104.4515           35492   385            386            1116           127            33478          8.6831689e-13
        89   106.65906          35929   387            386            1140           133            33883          8.7901675e-13
        90   108.95698          36358   389            387            1160           142            34280          8.9066467e-13
        91   111.21063          36809   389            387            1194           149            34690          9.0269462e-13
        92   113.46418          37215   389            387            1219           157            35063          9.1523011e-13
        93   115.77416          37651   391            387            1244           166            35463          9.2812167e-13
        94   118.1423           38094   393            387            1278           177            35859          9.4135443e-13
        95   120.48606          38509   393            388            1306           187            36235          9.5503019e-13
        96   122.94317          38965   394            390            1344           192            36645          9.689001e-13 
        97   125.41197          39360   394            390            1387           198            36991          9.8331201e-13
        98   127.89012          39819   394            390            1426           203            37406          9.9836495e-13
        99   130.45335          40208   396            391            1461           207            37753          1.0133742e-12
       100   133.13637          40662   396            392            1508           210            38156          1.0293162e-12
       101   135.80417          41069   396            392            1553           222            38506          1.0455248e-12
       102   138.52012          41503   396            392            1606           226            38883          1.0625545e-12
       103   141.2295           41905   397            393            1649           232            39234          1.0807358e-12
       104   143.99055          42330   397            393            1699           237            39604          1.0995466e-12
       105   146.79708          42744   397            394            1769           239            39945          1.1188974e-12
       106   149.65526          43170   397            394            1820           243            40316          1.1391571e-12
       107   152.51471          43561   397            394            1874           253            40643          1.1597966e-12
       108   155.42465          43983   397            394            1938           258            40996          1.180986e-12 
       109   158.35241          44373   397            394            1998           268            41316          1.202421e-12 
       110   161.43627          44789   398            394            2065           270            41662          1.2241624e-12
       111   164.43308          45192   399            394            2137           274            41988          1.2458714e-12
       112   167.47393          45595   399            394            2198           282            42322          1.2673593e-12
       113   170.50446          45982   400            394            2263           289            42636          1.2887568e-12
       114   173.6288           46393   400            394            2337           294            42968          1.3101208e-12
       115   176.75594          46762   401            394            2392           304            43271          1.3310408e-12
       116   179.90329          47163   401            394            2456           311            43601          1.3519795e-12
       117   183.12634          47535   403            394            2524           328            43886          1.37248e-12  
       118   186.37166          47926   404            394            2567           345            44216          1.3934192e-12
       119   189.65921          48319   405            394            2620           366            44534          1.4140319e-12
       120   193.12929          48685   405            394            2685           379            44822          1.4341682e-12
       121   196.51151          49072   407            394            2738           397            45136          1.4543778e-12
       122   199.97379          49448   409            394            2792           414            45439          1.4741832e-12
       123   203.4584           49809   411            394            2848           433            45723          1.4934818e-12
       124   206.96361          50201   412            394            2908           459            46028          1.5130365e-12
       125   210.50241          50564   414            394            2949           479            46328          1.5317639e-12
       126   214.08779          50935   416            394            3008           502            46615          1.5505528e-12
       127   217.71618          51315   416            394            3053           520            46932          1.5694483e-12
       128   221.35109          51686   417            394            3116           532            47227          1.5873816e-12
       129   225.0347           52056   420            394            3176           543            47523          1.6046776e-12
       130   228.89876          52413   420            395            3214           560            47824          1.6209645e-12
       131   232.66001          52771   421            395            3281           569            48105          1.637567e-12 
       132   236.46985          53165   424            396            3338           587            48420          1.6535175e-12
       133   240.3414           53532   427            396            3387           597            48725          1.6685205e-12
       134   244.24787          53915   429            396            3441           613            49036          1.6822783e-12
       135   248.23637          54289   432            397            3493           632            49335          1.6963092e-12
       136   252.27304          54706   434            398            3544           650            49680          1.7105984e-12
       137   256.35793          55088   434            399            3601           665            49989          1.724806e-12 
       138   260.53872          55459   435            401            3656           683            50284          1.7391498e-12
       139   264.75517          55845   435            401            3710           694            50605          1.7539708e-12
       140   269.14512          56251   438            402            3775           705            50931          1.768872e-12 
       141   273.44202          56648   438            403            3831           727            51249          1.7841766e-12
       142   277.84611          57020   440            403            3883           743            51551          1.7993625e-12
       143   282.25717          57413   440            403            3938           769            51863          1.814987e-12 
       144   286.70422          57812   440            404            3985           788            52195          1.830066e-12 
       145   291.23567          58229   441            403            4072           802            52511          1.8445884e-12
       146   295.79699          58631   441            404            4133           815            52838          1.8589327e-12
       147   300.42146          59029   441            404            4196           842            53146          1.8729458e-12
       148   305.10372          59454   441            403            4262           862            53486          1.8878763e-12
       149   309.86398          59854   442            405            4332           875            53800          1.9028346e-12
       150   314.8316           60261   444            405            4429           888            54095          1.9188698e-12
       151   319.71713          60697   444            409            4490           911            54443          1.9352173e-12
       152   324.65466          61138   444            407            4570           943            54774          1.9517335e-12
       153   329.70287          61543   444            408            4626           972            55093          1.9690954e-12
       154   334.77291          61985   444            407            4716           1002           55416          1.9867732e-12
       155   339.90102          62429   445            407            4776           1042           55759          2.0044145e-12
       156   345.11121          62872   445            407            4864           1066           56090          2.0220774e-12
       157   350.37273          63309   445            407            4929           1102           56426          2.039125e-12 
       158   355.71484          63786   445            407            5011           1139           56784          2.0563688e-12
       159   361.11849          64252   445            408            5075           1183           57141          2.0734101e-12
       160   366.74316          64712   445            408            5131           1236           57492          2.0905474e-12
       161   372.29381          65173   445            407            5190           1282           57849          2.1083448e-12
       162   377.95013          65627   445            406            5249           1325           58202          2.1261959e-12
       163   383.68925          66110   445            406            5300           1393           58566          2.1445857e-12
       164   389.49653          66588   445            406            5362           1437           58938          2.1642796e-12
       165   395.38693          67070   445            405            5448           1474           59298          2.184255e-12 
       166   401.35108          67577   445            404            5530           1510           59688          2.205651e-12 
       167   407.37804          68064   445            404            5610           1547           60058          2.2284504e-12
       168   413.4804           68550   445            404            5702           1582           60417          2.2515251e-12
       169   419.67117          69027   445            404            5794           1615           60769          2.276229e-12 
       170   426.08793          69556   445            404            5893           1644           61170          2.3022958e-12
       171   432.43948          70053   445            404            6000           1672           61532          2.3289941e-12
       172   438.87424          70572   446            404            6102           1713           61907          2.3564469e-12
       173   445.38099          71064   446            403            6203           1741           62271          2.3842253e-12
       174   452.00357          71575   446            401            6326           1774           62628          2.4124294e-12
       175   458.67929          72092   446            401            6442           1797           63006          2.4411113e-12
       176   465.448            72549   446            401            6546           1815           63341          2.4702425e-12
       177   472.30921          73084   447            401            6676           1843           63717          2.5002121e-12
       178   479.25684          73596   447            401            6813           1860           64075          2.5306414e-12
       179   486.29622          74113   447            401            6938           1899           64428          2.5623436e-12
       180   493.63588          74612   447            401            7059           1921           64784          2.5951002e-12
       181   500.85326          75133   447            398            7206           1958           65124          2.6291858e-12
       182   508.22737          75661   447            396            7332           1999           65487          2.6647795e-12
       183   515.64034          76172   447            396            7444           2042           65843          2.7014949e-12
       184   523.11567          76673   447            394            7570           2084           66178          2.7391636e-12
       185   530.69338          77210   447            394            7692           2136           66541          2.7774368e-12
       186   538.38506          77719   447            394            7824           2178           66876          2.8161389e-12
       187   546.18805          78261   447            394            7959           2244           67217          2.8553946e-12
       188   554.10479          78799   447            393            8103           2295           67561          2.8952976e-12
       189   562.13394          79302   447            392            8200           2369           67894          2.9354332e-12
       190   570.51553          79829   447            390            8305           2450           68237          2.9763943e-12
       191   578.7687           80353   447            389            8435           2517           68565          3.0187923e-12
       192   587.16896          80931   447            389            8583           2584           68928          3.0634165e-12
       193   595.6432           81429   446            389            8700           2670           69224          3.1096271e-12
       194   604.18292          81965   446            388            8790           2773           69568          3.1574924e-12
       195   612.86047          82522   446            388            8951           2844           69893          3.2076224e-12
       196   621.61702          83068   446            388            9071           2932           70231          3.2611016e-12
       197   630.52108          83641   446            388            9216           3038           70553          3.315917e-12 
       198   639.50783          84194   446            387            9381           3123           70857          3.3721581e-12
       199   648.61615          84768   446            386            9514           3220           71202          3.4292883e-12
       200   657.99542          85342   446            386            9671           3321           71518          3.4895833e-12
       201   667.35375          85906   446            386            9837           3406           71831          3.5517316e-12
       202   676.83844          86492   445            386            10032          3483           72146          3.6174476e-12
       203   686.37627          87123   443            384            10250          3575           72471          3.6869082e-12
       204   696.01418          87715   442            384            10454          3656           72779          3.7588791e-12
       205   705.81811          88349   442            383            10684          3744           73096          3.834671e-12 
       206   715.76142          88927   442            382            10886          3827           73390          3.9138112e-12
       207   725.83536          89601   442            379            11138          3920           73722          3.9957189e-12
       208   736.08745          90219   440            377            11370          4012           74020          4.0806434e-12
       209   746.45434          90869   440            376            11620          4107           74326          4.1711504e-12
       210   757.17667          91556   439            376            11906          4197           74638          4.268313e-12 
       211   767.87407          92262   439            375            12248          4267           74933          4.3753599e-12
       212   778.73261          92988   437            374            12556          4357           75264          4.4926578e-12
       213   789.85516          93726   437            373            12916          4455           75545          4.6190458e-12
       214   801.11572          94482   436            373            13270          4558           75845          4.7558874e-12
       215   812.57733          95262   436            371            13646          4667           76142          4.90028e-12  
       216   824.25856          96038   436            369            14036          4754           76443          5.0440998e-12
       217   836.16109          96900   436            368            14499          4840           76757          5.2004959e-12
       218   848.22386          97704   435            368            14957          4915           77029          5.360413e-12 
       219   860.48403          98556   434            368            15434          4999           77321          5.5157518e-12
       220   873.17165          99417   433            367            15933          5085           77599          5.6733037e-12
       221   885.76055         100241   433            366            16373          5183           77886          5.8371659e-12
       222   898.53807         101095   433            366            16866          5269           78161          6.0068241e-12
       223   911.39263         102014   432            365            17404          5368           78445          6.1814743e-12
       224   924.40639         102911   432            361            17927          5471           78720          6.3524874e-12
       225   937.53727         103795   430            359            18452          5572           78982          6.527018e-12 
       226   950.7198          104705   430            358            18980          5683           79254          6.6898587e-12
       227   963.9908          105587   429            355            19478          5805           79520          6.8584084e-12
       228   977.35646         106445   427            354            19979          5912           79773          7.0212382e-12
       229   990.86027         107355   425            354            20510          6030           80036          7.1847229e-12
       230   1004.6601         108303   424            352            21087          6156           80284          7.3779662e-12
       231   1018.2832         109262   420            350            21668          6285           80539          7.5595286e-12
       232   1031.9834         110169   416            350            22247          6392           80764          7.7353512e-12
       233   1045.7024         111152   416            349            22845          6537           81005          7.9324035e-12
       234   1059.5092         112145   415            347            23498          6661           81224          8.1317174e-12
       235   1073.3478         113026   413            346            24032          6799           81436          8.3012082e-12
       236   1087.294          113973   410            341            24604          6959           81659          8.4776147e-12
       237   1101.2657         114890   409            339            25163          7107           81872          8.6558448e-12
       238   1115.3058         115931   407            337            25853          7260           82074          8.8798115e-12
       239   1129.4028         116891   405            335            26467          7426           82258          9.0645601e-12
       240   1143.8433         117837   404            335            27075          7580           82443          9.2568422e-12
       241   1158.0451         118780   404            331            27649          7768           82628          9.4596651e-12
       242   1172.3158         119670   403            328            28227          7930           82782          9.6396082e-12
       243   1186.6216         120634   402            325            28831          8149           82927          9.8314411e-12
       244   1201.0447         121601   401            322            29448          8336           83094          1.0020278e-11
       245   1215.5365         122558   399            319            30060          8544           83236          1.0202392e-11
       246   1230.1038         123455   396            317            30595          8788           83359          1.0366757e-11
       247   1244.7191         124370   392            313            31142          9038           83485          1.0553061e-11
       248   1259.4205         125213   384            311            31645          9275           83598          1.0710161e-11
       249   1274.1627         126069   379            304            32147          9521           83718          1.0870381e-11
       250   1289.2144         126956   376            298            32664          9785           83833          1.1019707e-11
       251   1304.1026         127829   375            293            33175          10055          83931          1.1172734e-11
       252   1319.0671         128632   373            287            33660          10306          84006          1.130654e-11 
       253   1334.0689         129418   366            281            34101          10585          84085          1.1426463e-11
       254   1349.1064         130199   358            276            34581          10835          84149          1.1546e-11   
       255   1364.1979         130836   351            271            34899          11099          84216          1.1643287e-11
       256   1379.3473         131594   349            267            35339          11352          84287          1.1747988e-11
       257   1394.4913         132346   345            262            35790          11595          84354          1.1846013e-11
       258   1409.7146         133088   340            255            36256          11820          84417          1.1949461e-11
       259   1424.9738         133676   338            247            36556          12065          84470          1.1998781e-11
       260   1440.5517         134358   328            244            36946          12309          84531          1.2072432e-11
       261   1456.0206         134983   323            239            37285          12572          84564          1.2148328e-11
       262   1471.4861         135516   318            231            37513          12838          84616          1.217705e-11 
       263   1487.0017         136073   312            220            37777          13108          84656          1.221766e-11 
       264   1502.5917         136740   305            215            38118          13403          84699          1.2267274e-11
       265   1518.2284         137308   299            208            38359          13699          84743          1.2297019e-11
       266   1533.8837         137859   289            202            38600          13987          84781          1.2327379e-11
       267   1549.5808         138349   270            198            38803          14266          84812          1.2339802e-11
       268   1565.3656         138804   259            189            38942          14570          84844          1.2350013e-11
       269   1581.1786         139365   252            182            39179          14870          84882          1.238041e-11 
       270   1597.3798         139869   247            177            39296          15232          84917          1.2412734e-11
       271   1613.355          140425   239            169            39486          15582          84949          1.2398138e-11
       272   1629.3217         140885   233            165            39585          15914          84988          1.2405935e-11
       273   1645.2434         141263   220            156            39611          16260          85016          1.2405529e-11
       274   1661.1983         141704   214            151            39676          16607          85056          1.239528e-11 
       275   1677.1854         142210   208            146            39837          16939          85080          1.2401355e-11
       276   1693.2177         142654   196            141            39879          17314          85124          1.239414e-11 
       277   1709.3241         143168   188            136            40023          17663          85158          1.2410892e-11
       278   1725.4843         143553   178            132            40038          18005          85200          1.2386909e-11
       279   1741.6665         143950   174            128            40046          18360          85242          1.235463e-11 
       280   1758.1995         144391   164            124            40138          18696          85269          1.2355898e-11
       281   1774.6176         144815   161            123            40209          19027          85295          1.2344098e-11
       282   1791.1142         145239   155            122            40260          19365          85337          1.234881e-11 
       283   1807.5998         145754   152            118            40408          19697          85379          1.2367662e-11
       284   1824.1041         146092   142            111            40402          20021          85416          1.2331113e-11
       285   1840.676          146474   133            105            40390          20392          85454          1.2327336e-11
       286   1857.269          146796   128            98             40355          20726          85489          1.229502e-11 
       287   1873.8997         147285   121            94             40470          21072          85528          1.2300839e-11
       288   1890.6268         147697   115            88             40498          21427          85569          1.2291284e-11
       289   1907.3542         148139   114            86             40545          21791          85603          1.2290451e-11
       290   1924.5443         148494   107            83             40534          22134          85636          1.2297219e-11
       291   1941.3981         148908   99             78             40582          22471          85678          1.2301307e-11
       292   1958.3846         149287   94             73             40594          22810          85716          1.2269061e-11
       293   1975.3854         149738   90             71             40683          23144          85750          1.227652e-11 
       294   1992.3752         150146   80             68             40718          23487          85793          1.2269692e-11
       295   2009.4224         150500   73             65             40681          23854          85827          1.2255911e-11
       296   2026.5603         150895   69             62             40702          24200          85862          1.2262336e-11
       297   2043.7114         151255   64             58             40695          24544          85894          1.2240532e-11
       298   2060.94           151680   63             56             40711          24916          85934          1.225942e-11 
       299   2078.2406         152072   62             53             40705          25289          85963          1.2261199e-11
       300   2095.8787         152424   60             50             40646          25668          86000          1.2252653e-11
       301   2113.1579         152852   56             48             40667          26045          86036          1.2247153e-11
       302   2130.5004         153181   49             46             40618          26402          86066          1.2253677e-11
       303   2147.7973         153537   47             44             40543          26806          86097          1.2243974e-11
       304   2165.1469         153894   46             42             40462          27212          86132          1.2243032e-11
       305   2182.539          154329   43             40             40451          27634          86161          1.2244852e-11
       306   2199.9936         154622   41             39             40295          28056          86191          1.2220748e-11
       307   2217.4971         154990   40             39             40202          28488          86221          1.2229779e-11
       308   2235.0193         155371   35             38             40065          28979          86254          1.2234759e-11
       309   2252.6234         155759   34             37             39957          29450          86281          1.2240524e-11
       310   2270.5962         156090   32             35             39777          29934          86312          1.2242152e-11
       311   2288.2697         156438   32             33             39613          30426          86334          1.225073e-11 
       312   2305.9714         156830   32             32             39491          30901          86374          1.2256429e-11
       313   2323.701          157144   32             32             39322          31366          86392          1.2275323e-11
       314   2341.5253         157574   30             32             39244          31840          86428          1.2264543e-11
       315   2359.3897         157939   29             31             39089          32342          86448          1.2282332e-11
       316   2377.3112         158302   29             30             39006          32758          86479          1.2287434e-11
       317   2395.3124         158643   29             30             38805          33274          86505          1.2295585e-11
       318   2413.3667         158996   28             29             38675          33734          86530          1.2319425e-11
       319   2431.4889         159392   27             29             38557          34217          86562          1.2318445e-11
       320   2450.085          159743   27             29             38400          34702          86585          1.2322165e-11
Loop time of 2450.09 on 16 procs for 320 steps with 159743 atoms

98.2% CPU use with 16 MPI tasks x 1 OpenMP threads

MPI task timing breakdown:
Section |  min time  |  avg time  |  max time  |%varavg| %total
---------------------------------------------------------------
Pair    | 594.19     | 677.68     | 831.25     | 287.7 | 27.66
Neigh   | 551.49     | 649.75     | 864.66     | 382.1 | 26.52
Comm    | 206.7      | 240.14     | 283.13     | 148.0 |  9.80
Output  | 38.585     | 38.586     | 38.586     |   0.0 |  1.57
Modify  | 425.23     | 832.48     | 1025.2     | 643.4 | 33.98
Other   |            | 11.44      |            |       |  0.47

Nlocal:        9983.94 ave       14451 max        8443 min
Histogram: 8 2 2 0 1 1 0 0 0 2
Nghost:        7786.38 ave       10160 max        6543 min
Histogram: 4 4 2 2 0 0 0 2 0 2
Neighs:        98601.3 ave      114637 max       89403 min
Histogram: 6 0 2 0 3 1 1 1 1 1

Total # of neighbors = 1577621
Ave neighs/atom = 9.8759946
Neighbor list builds = 28176
Dangerous builds = 27856

Total wall time: 0:41:17
