LAMMPS (23 Jun 2022 - Update 4)
  using 1 OpenMP thread(s) per MPI task
package omp 0
using multi-threaded neighbor list subroutines
#-----------------------------------------------------------------------------#
#                NUFEB Simulation: Heterotrophic Biofilm Growth               #
#-----------------------------------------------------------------------------#


#-----------------------------System Settings---------------------------------#

units si                                    # using si units (m, s, kg)
atom_style      coccus                      # using nufeb coccus atom style
atom_modify     map array sort 10 0         # map array - find atoms using indices
		                            # sort every 10

boundary        pp pp ff                    # periodic boundaries in x and y
                                            # fixed boundary in z

newton          off                         # forces between local and ghost
                                            # atoms are computed in each
					     # processor without communication

processors      * * 1                       # processor grid

comm_modify     vel yes                     # communicate velocities for ghost atoms

read_data       atom_ch.in	             # read atom.in file which defines domain size
Reading data file ...
  orthogonal box = (0 0 0) to (6e-05 6e-05 6e-05)
  4 by 4 by 1 MPI processor grid
  reading atoms ...
  150 atoms
  read_data CPU = 0.020 seconds
                                            # and initial atoms


#--------------------Microbes and Functional Groups-------------------------#

group           CROSS1   type 1               # assign type 1,2 atoms to CROSS group
50 atoms in group CROSS1
group           CROSS2   type 2
50 atoms in group CROSS2
group		CHEATER  type 3
50 atoms in group CHEATER
group           dead     type 4
0 atoms in group dead
group		EPS	 type 5
0 atoms in group EPS

neighbor        5e-7 bin                   # setting neighbour skin distance and style

neigh_modify    check yes                  # rebuild neighbour list if any atom
                                           # had moved more than half the skin distance


#--------------------------Mesh Grid and Substrates--------------------------#

# defining grid sytle, substrate names, and grid size
grid_style      nufeb/chemostat 3 sub metab1 metab2 5e-6

# set diffusion boundary conditions and initial concentrations (liquid:kg/m3)
grid_modify     set sub      pp pp nd  1.8e-4
No /omp style for force computation currently active
grid_modify     set metab1   pp pp nd  1e-4
No /omp style for force computation currently active
grid_modify     set metab2   pp pp nd  1e-4
No /omp style for force computation currently active


#--------------------------Biological Processes-------------------------------#

# heterotrophs growth
fix growth_cross1 CROSS1 nufeb/growth/cross1 sub 3.5e-5 metab2 4e-3 metab1 growth 0.009 yield 0.6 decay 2.6e-6 metab1_exp 20 epsyield 0.12 epsdens 30

fix growth_cross2 CROSS2 nufeb/growth/cross2 sub 3.5e-5 metab1 4e-3 metab2 growth 0.009 yield 0.6 decay 2.6e-6 metab2_exp 20 epsyield 0.12 epsdens 30

fix growth_cheater CHEATER nufeb/growth/cheater sub 3.5e-5 metab1 1e-3 metab2 1e-3 growth 0.009 yield 0.6 decay 2.6e-6

# heterotrophs division, division diameter: 1.36e-6
fix div1 CROSS1 nufeb/division/coccus 1.36e-6 112
fix div2 CROSS2 nufeb/division/coccus 1.36e-6 142
fix div3 CHEATER nufeb/division/coccus 1.36e-6 190

fix death1 CROSS1 nufeb/death/diameter dead 5.43e-7
fix death2 CROSS2 nufeb/death/diameter dead 5.43e-7
fix death3 CHEATER nufeb/death/diameter dead 5.43e-7

# EPS secretion from heterotrophs
fix eps1 CROSS1 nufeb/eps_secretion 5 EPS 1.1 30 256
fix eps2 CROSS2 nufeb/eps_secretion 5 EPS 1.1 30 340

#---------------------------Physical Processes--------------------------------#

pair_style  gran/hooke/history 1e-4 NULL 1e-5 NULL 0.0 0    # pairwise interaction
pair_coeff  * *                                             # between atoms

# pairwise interaction between z-wall and atoms
fix wall all wall/gran hooke/history 1e-3 NULL 1e-4 NULL 0 0 zplane 0.0 1e-04

fix vis all viscous 1e-5                                    # viscous damping force

fix grav all gravity 9.81 vector 0.0 0.0 -1.0

fix nve all nve/limit 1e-7                                  # NVE integration with
                                                            # maximum distance limit


#---------------------------Post-Physical Processes---------------------------#

fix coeff_sub all nufeb/diffusion_coeff sub ratio 0.8       # defining diffusion coeff in the biofilm
fix coeff_metab1 all nufeb/diffusion_coeff metab1 ratio 0.8    # region is 80% of the value in liquid
fix coeff_metab2 all nufeb/diffusion_coeff metab2 ratio 0.8

#---------------------------Chemical Processes---------------------------------#

fix diff_sub all nufeb/diffusion_reaction sub 1e-9        # diffusion reaction for updating
fix diff_metab1 all nufeb/diffusion_reaction metab1 4e-9     # distribusion of substrate concentration
fix diff_metab2 all nufeb/diffusion_reaction metab2 4e-9

#--------------------------Computations and Outputs----------------------------#

variable mass equal "mass(all)"                             # total mass
variable ncross1 equal "count(CROSS1)"                      # total # of CROSS1
variable ncross2 equal "count(CROSS2)"                      # total # of CROSS2
variable ncheater equal "count(CHEATER)"
variable ndead equal "count(dead)"
variable neps equal "count(EPS)"

shell mkdir vtk_EPS_ch                                            # dump vtk files to /vtk folder
dump du1 all vtk 10 vtk_EPS_ch/dump*.vtu id type diameter         # require build NUFEB with vtk option
dump du2 all grid/vtk 10 vtk_EPS_ch/dump_%_*.vti con rea den gro

#dump du3 all movie 10 movie.avi type diameter view 80 60    # dump video
#dump_modify du3 acolor 1 blue acolor 2 lightgrey framerate 10


                                                            # dump hdf5 files to /hdf5 folder
#shell mkdir hdf5                                           # require build NUFEB with hdf5 option
#dump du3 all nufeb/hdf5 10 dump.h5 id type x y z vx vy vz fx fy fz radius conc reac

thermo_style custom step cpu atoms v_ncross1 v_ncross2 v_ncheater v_ndead v_neps v_mass     # screen and log outputs
thermo 1
thermo_modify   lost ignore

#-----------------------------------Run----------------------------------------#

# issue run command, define timesteps for physical (pairdt) and chemical (diffdt) processes
run_style nufeb diffdt 1e-4 difftol 1e-6 pairdt 1e-2 pairtol 1 pairmax 1000 diffmax 5000

timestep 12000                                               # define biological timesteps (1000s)

run 320                                                    # growing biofilm for 900x1000s
Generated 0 of 6 mixed pair_coeff terms from geometric mixing rule
Last active /omp style is pair_style gran/hooke/history/omp
Neighbor list info ...
  update every 1 steps, delay 10 steps, check yes
  max neighbors/atom: 2000, page size: 100000
  master list distance cutoff = 2.49e-06
  ghost atom cutoff = 2.49e-06
  binsize = 1.245e-06, bins = 49 49 49
  1 neighbor lists, perpetual/occasional/extra = 1 0 0
  (1) pair gran/hooke/history/omp, perpetual
      attributes: half, newton off, size, history, omp
      pair build: half/size/bin/newtoff/omp
      stencil: full/bin/3d
      bin: standard
Per MPI rank memory allocation (min/avg/max) = 11.02 | 11.02 | 11.02 Mbytes
   Step          CPU          Atoms      v_ncross1      v_ncross2      v_ncheater      v_ndead         v_neps         v_mass    
         0   0                    150   50             50             50             0              0              1.3295396e-13
         1   0.38541627           432   90             85             86             0              171            1.7273035e-13
         2   0.76559867           793   120            125            136            0              412            1.9547765e-13
         3   1.0759777           1120   130            143            174            0              673            2.1424876e-13
         4   1.3922248           1424   137            151            194            0              942            2.3146707e-13
         5   1.6008774           1757   144            163            211            0              1239           2.4850375e-13
         6   1.785818            2083   149            168            234            0              1532           2.651016e-13 
         7   1.938093            2423   156            180            249            0              1838           2.8136348e-13
         8   2.0868436           2763   161            188            261            0              2153           2.9727819e-13
         9   2.2437376           3139   169            196            285            0              2489           3.1289936e-13
        10   2.4088255           3512   178            201            303            0              2830           3.2798517e-13
        11   2.5263376           3873   182            207            317            0              3167           3.4285985e-13
        12   2.6546498           4242   185            214            331            0              3512           3.57394e-13  
        13   2.7729329           4629   193            219            346            0              3871           3.7159681e-13
        14   2.8784576           5021   198            224            367            0              4232           3.8534002e-13
        15   2.9840933           5414   203            230            386            0              4595           3.9880254e-13
        16   3.0817276           5798   207            233            400            0              4958           4.1199186e-13
        17   3.2087457           6205   209            242            420            0              5334           4.2492751e-13
        18   3.30116             6598   217            247            441            0              5693           4.3736843e-13
        19   3.3937677           7002   224            250            457            0              6071           4.4957752e-13
        20   3.5258301           7408   228            255            477            0              6448           4.6146018e-13
        21   3.6170458           7818   231            261            482            0              6844           4.7309352e-13
        22   3.6964308           8208   238            266            493            0              7211           4.8430208e-13
        23   3.7789074           8625   243            270            508            0              7604           4.9536389e-13
        24   3.8739497           9056   247            278            525            0              8006           5.0614829e-13
        25   3.9740582           9460   248            282            537            0              8393           5.1671588e-13
        26   4.0606969           9862   249            284            549            0              8780           5.2681501e-13
        27   4.1784348          10262   252            286            565            0              9159           5.3665928e-13
        28   4.2935254          10663   254            290            580            0              9539           5.4632859e-13
        29   4.3862459          11087   258            292            598            0              9939           5.5583281e-13
        30   4.5561137          11479   260            297            611            0              10311          5.6487431e-13
        31   4.6856323          11891   266            299            623            0              10703          5.7350389e-13
        32   4.8188096          12293   267            303            632            0              11091          5.8193374e-13
        33   4.973503           12721   270            306            645            0              11500          5.9005265e-13
        34   5.1095798          13092   272            310            654            0              11856          5.9750544e-13
        35   5.2687229          13511   274            311            661            0              12265          6.0514931e-13
        36   5.5327052          13908   281            312            670            0              12645          6.1238093e-13
        37   5.7834648          14308   285            316            682            0              13025          6.1905036e-13
        38   6.0932585          14702   286            318            692            0              13406          6.2518461e-13
        39   6.6711265          15113   288            320            700            0              13805          6.3115455e-13
        40   49.064048          15503   292            321            710            0              14180          6.3607647e-13
        41   49.377699          15902   292            324            714            0              14572          6.4106487e-13
        42   50.192216          16300   293            326            721            0              14960          6.4608927e-13
        43   51.030962          16698   295            328            729            0              15346          6.5095215e-13
        44   51.927971          17108   297            328            732            0              15751          6.5570794e-13
        45   52.829753          17510   300            329            737            0              16144          6.6005722e-13
        46   53.743138          17906   305            332            742            0              16527          6.6411149e-13
        47   54.69104           18341   307            337            747            0              16950          6.6796492e-13
        48   55.605096          18739   312            339            749            0              17339          6.7158679e-13
        49   56.547668          19155   314            342            755            0              17744          6.7514998e-13
        50   57.601714          19572   318            348            764            0              18142          6.7865438e-13
        51   58.609561          19994   318            348            770            0              18558          6.8187998e-13
        52   59.632799          20404   320            349            776            0              18959          6.8490142e-13
        53   60.688991          20829   321            354            780            0              19374          6.8779566e-13
        54   61.723662          21240   321            355            785            0              19779          6.9045576e-13
        55   62.789197          21654   325            357            787            0              20185          6.9322916e-13
        56   63.946804          22092   331            362            790            0              20609          6.9590119e-13
        57   65.119997          22532   335            363            794            0              21040          6.9803418e-13
        58   66.255359          22965   337            366            795            1              21466          6.9979501e-13
        59   67.416995          23383   337            368            799            1              21878          7.0167023e-13
        60   68.779188          23830   338            368            800            1              22323          7.036811e-13 
        61   69.983114          24224   340            371            802            1              22710          7.0508358e-13
        62   71.214504          24681   341            375            802            2              23161          7.0692687e-13
        63   72.459154          25113   343            381            801            4              23584          7.0876096e-13
        64   73.782904          25553   345            382            804            4              24018          7.1060962e-13
        65   75.108911          25996   345            383            806            6              24456          7.1250653e-13
        66   76.441159          26418   346            384            811            8              24869          7.1427477e-13
        67   77.830329          26865   347            384            811            10             25313          7.1634228e-13
        68   79.249106          27306   349            385            811            12             25749          7.1833133e-13
        69   80.6766            27739   352            386            812            15             26174          7.2020374e-13
        70   82.239689          28178   353            388            809            18             26610          7.2205742e-13
        71   83.789724          28609   353            390            811            21             27034          7.2367294e-13
        72   85.305743          29062   354            394            810            25             27479          7.2545607e-13
        73   86.876907          29483   355            395            806            31             27896          7.2714286e-13
        74   88.495972          29939   356            399            805            33             28346          7.2975474e-13
        75   90.130896          30366   360            399            810            37             28760          7.3252388e-13
        76   91.828038          30831   360            401            806            46             29218          7.3590057e-13
        77   93.570656          31244   361            401            809            52             29621          7.394065e-13 
        78   95.36261           31721   362            402            813            58             30086          7.4382741e-13
        79   97.235719          32144   366            406            819            63             30490          7.4832011e-13
        80   99.220693          32611   366            408            823            69             30945          7.539215e-13 
        81   101.10512          33038   367            410            833            75             31353          7.5981594e-13
        82   103.05015          33494   369            410            838            85             31792          7.6613895e-13
        83   105.02136          33931   371            413            845            92             32210          7.7279269e-13
        84   107.04384          34386   371            413            856            102            32644          7.7999646e-13
        85   109.09148          34833   371            414            872            104            33072          7.8766438e-13
        86   111.17298          35272   374            415            884            112            33487          7.956134e-13 
        87   113.27033          35732   374            415            898            120            33925          8.040283e-13 
        88   115.49998          36178   374            417            917            126            34344          8.1265816e-13
        89   117.71597          36620   375            419            936            127            34763          8.2198214e-13
        90   120.19238          37050   375            419            961            134            35161          8.3167358e-13
        91   122.46133          37506   377            420            985            138            35586          8.4134725e-13
        92   124.7989           37945   378            421            1000           148            35998          8.5127588e-13
        93   127.1901           38399   379            423            1025           152            36420          8.6169926e-13
        94   129.65228          38848   380            424            1060           157            36827          8.7245104e-13
        95   132.15297          39293   380            425            1091           160            37237          8.8387909e-13
        96   134.70002          39721   380            427            1112           165            37637          8.9555397e-13
        97   137.45058          40166   380            427            1151           168            38040          9.0767231e-13
        98   140.15145          40601   381            428            1189           172            38431          9.2133287e-13
        99   142.92883          41037   381            429            1223           177            38827          9.3589504e-13
       100   145.80431          41458   382            430            1256           180            39210          9.5137835e-13
       101   148.59579          41874   382            430            1298           187            39577          9.6715609e-13
       102   151.4552           42297   383            431            1340           190            39953          9.8342491e-13
       103   154.32274          42711   383            434            1389           196            40309          9.9951625e-13
       104   157.25015          43164   383            434            1439           202            40706          1.0159941e-12
       105   160.16886          43543   385            435            1480           204            41039          1.0319998e-12
       106   163.11687          43970   386            438            1516           209            41421          1.0481416e-12
       107   166.12716          44364   386            439            1565           212            41762          1.0637064e-12
       108   169.13854          44803   387            442            1621           216            42137          1.0790148e-12
       109   172.22895          45199   387            443            1672           221            42476          1.0937655e-12
       110   175.49763          45633   388            443            1718           230            42854          1.1084546e-12
       111   178.67694          46005   390            445            1742           236            43192          1.1224174e-12
       112   181.87871          46441   392            448            1784           241            43576          1.1362838e-12
       113   185.15418          46814   392            448            1816           249            43909          1.1498258e-12
       114   188.52063          47248   394            452            1857           262            44283          1.1636688e-12
       115   191.91559          47638   397            454            1891           267            44629          1.177312e-12 
       116   195.40516          48047   398            456            1917           282            44994          1.1907082e-12
       117   198.94813          48429   398            458            1947           299            45327          1.2047911e-12
       118   202.53124          48853   399            459            1984           314            45697          1.2196168e-12
       119   206.15705          49247   401            461            2014           327            46044          1.2343275e-12
       120   209.99888          49648   404            464            2040           346            46394          1.2493638e-12
       121   213.71213          50078   404            466            2073           363            46772          1.2642479e-12
       122   217.48001          50443   407            467            2110           378            47081          1.2789048e-12
       123   221.34425          50873   409            471            2145           399            47449          1.2932724e-12
       124   225.21991          51257   410            472            2173           412            47790          1.3073615e-12
       125   229.1618           51692   412            475            2229           425            48151          1.3213781e-12
       126   233.15448          52084   413            476            2254           445            48496          1.3345542e-12
       127   237.19823          52494   416            480            2277           473            48848          1.3474253e-12
       128   241.31992          52896   417            480            2319           489            49191          1.3602427e-12
       129   245.53568          53329   420            483            2341           515            49570          1.3729038e-12
       130   249.9149           53766   421            486            2388           533            49938          1.3850483e-12
       131   254.23451          54162   423            487            2431           548            50273          1.3967036e-12
       132   258.6831           54565   423            488            2467           564            50623          1.4088138e-12
       133   263.20883          54994   424            491            2506           582            50991          1.4214052e-12
       134   267.77585          55441   427            494            2544           605            51371          1.43427e-12  
       135   272.40222          55859   427            494            2589           630            51719          1.447962e-12 
       136   277.09313          56324   430            496            2633           650            52115          1.4619428e-12
       137   281.80506          56768   430            496            2676           670            52496          1.4759722e-12
       138   286.55733          57244   432            498            2728           687            52899          1.4894688e-12
       139   291.37847          57678   435            501            2768           703            53271          1.502604e-12 
       140   296.41713          58146   435            502            2829           712            53668          1.5159154e-12
       141   301.42198          58629   436            503            2891           724            54075          1.5291503e-12
       142   306.53097          59100   436            503            2948           738            54475          1.5425583e-12
       143   311.71074          59594   436            503            3016           748            54891          1.5566971e-12
       144   316.98964          60064   436            503            3074           761            55290          1.5710214e-12
       145   322.39007          60542   437            503            3134           776            55692          1.5861477e-12
       146   327.86928          61027   437            505            3195           786            56104          1.6018899e-12
       147   333.4432           61483   437            507            3256           795            56488          1.6181211e-12
       148   339.07531          61993   438            507            3338           805            56905          1.635367e-12 
       149   344.79868          62506   438            508            3403           817            57340          1.6529905e-12
       150   350.70345          62993   438            508            3480           829            57738          1.6707283e-12
       151   356.59093          63474   438            508            3533           843            58152          1.6883471e-12
       152   362.63612          63985   439            508            3622           854            58562          1.7061322e-12
       153   368.72971          64498   439            508            3678           883            58990          1.7242641e-12
       154   374.91955          64986   439            508            3738           902            59399          1.7426217e-12
       155   381.22642          65490   440            508            3807           923            59812          1.7613823e-12
       156   387.65227          66004   440            508            3886           940            60230          1.7805053e-12
       157   394.17042          66511   440            508            3940           977            60646          1.8006204e-12
       158   400.76063          66998   440            508            4018           999            61033          1.8222409e-12
       159   407.46137          67529   440            508            4085           1028           61468          1.8450378e-12
       160   414.42016          68024   440            508            4165           1051           61860          1.8681481e-12
       161   421.3048           68537   440            508            4268           1069           62252          1.8919433e-12
       162   428.3223           69050   440            508            4353           1082           62667          1.9158933e-12
       163   435.37559          69564   440            508            4444           1103           63069          1.9395786e-12
       164   442.56361          70055   440            508            4513           1125           63469          1.9628658e-12
       165   449.89561          70562   440            508            4594           1152           63868          1.9861031e-12
       166   457.34463          71066   440            508            4682           1176           64260          2.0106642e-12
       167   464.91574          71567   440            507            4777           1193           64650          2.0356586e-12
       168   472.60072          72055   439            507            4853           1220           65036          2.0618354e-12
       169   480.39823          72578   440            506            4926           1271           65435          2.089308e-12 
       170   488.49918          73096   440            506            4991           1326           65833          2.1182968e-12
       171   496.52829          73596   440            506            5074           1365           66211          2.1483e-12   
       172   504.69697          74109   440            506            5166           1404           66593          2.1792327e-12
       173   512.92828          74605   440            506            5231           1460           66968          2.2103557e-12
       174   521.30235          75128   441            507            5311           1509           67360          2.241385e-12 
       175   529.76694          75614   441            507            5387           1557           67722          2.2725545e-12
       176   538.35796          76141   441            506            5468           1614           68112          2.3042587e-12
       177   547.09119          76656   441            506            5559           1667           68483          2.3366054e-12
       178   555.93507          77163   439            505            5645           1721           68853          2.3699296e-12
       179   564.92656          77681   438            505            5742           1770           69226          2.4048245e-12
       180   574.18633          78184   437            504            5833           1816           69594          2.4405048e-12
       181   583.39516          78688   437            503            5954           1858           69936          2.4770918e-12
       182   592.69401          79229   437            503            6066           1898           70325          2.515246e-12 
       183   602.08614          79722   437            503            6163           1949           70670          2.5539106e-12
       184   611.63047          80247   437            503            6289           1984           71034          2.593664e-12 
       185   621.29475          80778   437            503            6405           2028           71405          2.6335776e-12
       186   631.06582          81307   437            504            6546           2079           71741          2.673758e-12 
       187   640.96733          81844   437            504            6669           2129           72105          2.7145282e-12
       188   650.99071          82403   437            504            6825           2174           72463          2.756119e-12 
       189   661.12991          82902   437            504            6935           2221           72805          2.7984699e-12
       190   671.58186          83430   437            504            7046           2276           73167          2.8423021e-12
       191   681.96941          83952   437            504            7197           2318           73496          2.8880481e-12
       192   692.48334          84521   436            504            7370           2359           73852          2.9353503e-12
       193   703.07953          85043   435            502            7502           2408           74196          2.9848919e-12
       194   713.78606          85571   434            501            7655           2467           74514          3.0363505e-12
       195   724.63016          86149   434            501            7842           2508           74864          3.0901857e-12
       196   735.59334          86707   434            501            8027           2549           75196          3.1456949e-12
       197   746.70857          87261   434            500            8203           2600           75524          3.2016679e-12
       198   757.97532          87826   434            499            8388           2663           75842          3.2587707e-12
       199   769.33451          88410   433            499            8596           2702           76180          3.3174936e-12
       200   781.08474          88983   433            498            8808           2757           76487          3.3781076e-12
       201   792.70938          89567   433            498            9013           2814           76809          3.4410619e-12
       202   804.48572          90162   433            498            9236           2867           77128          3.5066257e-12
       203   816.39134          90739   433            497            9450           2913           77446          3.5755942e-12
       204   828.44606          91334   433            497            9687           2963           77754          3.6466908e-12
       205   840.67388          91959   432            497            9934           3016           78080          3.7209053e-12
       206   853.03994          92594   432            495            10199          3069           78399          3.797336e-12 
       207   865.50691          93178   430            495            10444          3119           78690          3.876746e-12 
       208   878.14956          93855   428            492            10736          3189           79010          3.9599668e-12
       209   890.95093          94503   426            491            10986          3258           79342          4.0482542e-12
       210   904.16213          95142   426            490            11285          3339           79602          4.142567e-12 
       211   917.36836          95841   426            488            11574          3409           79944          4.244238e-12 
       212   930.80509          96539   425            488            11896          3475           80255          4.3530784e-12
       213   944.41768          97214   425            487            12246          3526           80530          4.4726862e-12
       214   958.30016          97983   423            487            12624          3590           80859          4.5994796e-12
       215   972.39541          98794   422            486            13048          3660           81178          4.7361809e-12
       216   986.69222          99524   420            485            13427          3738           81454          4.8749956e-12
       217   1001.1811         100319   420            484            13832          3812           81771          5.0121361e-12
       218   1015.8751         101113   419            484            14244          3887           82079          5.154285e-12 
       219   1030.7783         101870   419            483            14636          3968           82364          5.2953453e-12
       220   1046.1061         102697   418            483            15109          4035           82652          5.442397e-12 
       221   1061.4151         103496   416            482            15531          4108           82959          5.5855589e-12
       222   1076.912          104304   412            478            15998          4185           83231          5.7373951e-12
       223   1092.7061         105124   411            475            16486          4255           83497          5.890068e-12 
       224   1108.5044         105990   411            473            16987          4330           83789          6.0376257e-12
       225   1124.4918         106802   407            469            17465          4395           84066          6.1855485e-12
       226   1140.6047         107582   406            467            17924          4476           84309          6.3277689e-12
       227   1156.8542         108455   402            464            18434          4561           84594          6.4890945e-12
       228   1173.3599         109340   399            462            18957          4665           84857          6.6490313e-12
       229   1189.8893         110236   398            462            19518          4762           85096          6.8246442e-12
       230   1206.8683         111099   396            462            20060          4844           85337          6.9942124e-12
       231   1223.6755         112074   394            462            20667          4929           85622          7.1739215e-12
       232   1240.6073         112957   391            459            21247          5015           85845          7.3457422e-12
       233   1257.6189         113893   391            456            21860          5121           86065          7.5288109e-12
       234   1274.858          114802   388            455            22429          5212           86318          7.7109614e-12
       235   1292.0489         115674   388            452            22969          5320           86545          7.8891434e-12
       236   1309.3132         116648   387            448            23615          5442           86756          8.0856097e-12
       237   1326.7833         117657   383            446            24294          5583           86951          8.3086809e-12
       238   1344.2693         118580   381            444            24879          5729           87147          8.5135515e-12
       239   1361.8537         119586   378            439            25549          5881           87339          8.719638e-12 
       240   1379.9205         120518   376            436            26155          6030           87521          8.9130963e-12
       241   1397.6947         121500   375            432            26796          6208           87689          9.1255985e-12
       242   1415.5819         122451   371            427            27377          6415           87861          9.3174702e-12
       243   1433.5967         123374   370            417            27943          6633           88011          9.5155419e-12
       244   1451.6931         124374   368            414            28544          6893           88155          9.7232947e-12
       245   1469.8742         125370   364            409            29134          7160           88303          9.9378347e-12
       246   1488.159          126327   363            406            29702          7434           88422          1.0141514e-11
       247   1506.5258         127207   360            403            30176          7728           88540          1.0346088e-11
       248   1524.935          128108   359            401            30663          8041           88644          1.0526907e-11
       249   1543.521          129161   353            396            31317          8348           88747          1.0724444e-11
       250   1562.5461         130022   347            390            31776          8658           88851          1.0913841e-11
       251   1581.2741         130900   345            376            32273          8979           88927          1.1073483e-11
       252   1600.1627         131759   340            370            32765          9262           89022          1.1236595e-11
       253   1619.1022         132541   331            367            33192          9545           89106          1.1379416e-11
       254   1638.155          133340   328            360            33662          9819           89171          1.1511608e-11
       255   1657.2921         134082   321            355            34073          10091          89242          1.163652e-11 
       256   1676.5129         134796   314            352            34480          10347          89303          1.1726665e-11
       257   1695.7791         135533   310            349            34938          10569          89367          1.1811315e-11
       258   1715.1606         136244   303            339            35404          10778          89420          1.1900414e-11
       259   1734.6333         136821   296            335            35736          10972          89482          1.1977573e-11
       260   1754.5224         137469   291            326            36154          11169          89529          1.2051214e-11
       261   1774.2649         138157   286            313            36610          11360          89588          1.2107665e-11
       262   1794.0312         138782   278            302            37018          11549          89635          1.2156377e-11
       263   1813.9122         139372   268            296            37383          11741          89684          1.2201788e-11
       264   1833.8681         139853   260            285            37630          11951          89727          1.2240754e-11
       265   1853.9035         140448   250            276            38022          12143          89757          1.227143e-11 
       266   1874.0413         141031   241            268            38353          12370          89799          1.2306312e-11
       267   1894.2715         141645   228            260            38669          12653          89835          1.2354214e-11
       268   1914.5923         142107   223            249            38814          12948          89873          1.2350642e-11
       269   1934.9865         142584   211            239            38979          13246          89909          1.2347479e-11
       270   1955.7687         143124   204            231            39170          13577          89942          1.2360357e-11
       271   1976.3545         143580   195            226            39251          13921          89987          1.2361485e-11
       272   1996.9665         144002   186            218            39282          14303          90013          1.2355234e-11
       273   2017.6785         144493   176            205            39396          14663          90053          1.2368896e-11
       274   2038.4496         144926   168            196            39429          15044          90089          1.235133e-11 
       275   2059.316          145470   158            185            39607          15388          90132          1.2351808e-11
       276   2080.2653         145874   150            172            39622          15768          90162          1.2336156e-11
       277   2101.3126         146331   139            162            39699          16139          90192          1.2340255e-11
       278   2122.4083         146705   131            158            39704          16493          90219          1.2349495e-11
       279   2143.5771         147208   123            144            39822          16863          90256          1.2333557e-11
       280   2165.1863         147615   118            137            39871          17205          90284          1.2309217e-11
       281   2186.5166         148139   110            132            40075          17503          90319          1.2335162e-11
       282   2207.922          148476   107            128            40075          17803          90363          1.2316003e-11
       283   2229.374          148903   103            123            40151          18120          90406          1.2307847e-11
       284   2250.8981         149367   91             118            40270          18450          90438          1.2298129e-11
       285   2272.5217         149796   86             105            40401          18737          90467          1.2305242e-11
       286   2294.1179         150195   80             94             40422          19099          90500          1.2295844e-11
       287   2315.8859         150598   76             93             40491          19406          90532          1.2300163e-11
       288   2337.7159         150954   67             90             40508          19723          90566          1.2286303e-11
       289   2359.6086         151511   64             85             40683          20081          90598          1.2286845e-11
       290   2381.9862         151857   60             77             40706          20376          90638          1.2279749e-11
       291   2403.8978         152278   56             70             40784          20698          90670          1.2282397e-11
       292   2425.8717         152605   50             68             40756          21031          90700          1.2255598e-11
       293   2447.895          152970   46             65             40786          21342          90731          1.2245578e-11
       294   2469.9552         153389   45             63             40857          21659          90765          1.2246698e-11
       295   2492.1092         153820   38             58             40932          21998          90794          1.224024e-11 
       296   2514.3362         154209   35             56             40955          22340          90823          1.2248461e-11
       297   2536.5965         154564   33             52             40950          22682          90847          1.2242456e-11
       298   2558.9738         154945   33             51             40898          23075          90888          1.2240637e-11
       299   2581.4549         155353   32             47             40917          23444          90913          1.2237649e-11
       300   2604.3955         155771   32             44             40956          23795          90944          1.2265857e-11
       301   2627.0206         156127   31             41             40912          24167          90976          1.226012e-11 
       302   2649.6878         156476   30             41             40875          24530          91000          1.2241297e-11
       303   2672.3926         156847   27             39             40835          24913          91033          1.2231028e-11
       304   2695.2291         157276   26             37             40849          25306          91058          1.2225383e-11
       305   2718.1123         157663   24             37             40801          25715          91086          1.2251207e-11
       306   2741.0716         157931   23             36             40617          26140          91115          1.222967e-11 
       307   2764.0929         158371   22             36             40586          26586          91141          1.2237282e-11
       308   2787.1979         158673   22             33             40407          27045          91166          1.2228761e-11
       309   2810.3526         159091   22             32             40323          27521          91193          1.2235843e-11
       310   2833.8987         159455   21             32             40216          27969          91217          1.2229277e-11
       311   2857.1166         159796   20             30             40067          28434          91245          1.2233511e-11
       312   2880.4111         160170   19             30             39946          28908          91267          1.224695e-11 
       313   2903.7349         160442   19             29             39686          29415          91293          1.2226662e-11
       314   2927.1027         160799   19             29             39527          29908          91316          1.2231342e-11
       315   2950.5836         161206   19             29             39433          30381          91344          1.2231433e-11
       316   2974.1152         161552   19             29             39221          30916          91367          1.2240419e-11
       317   2997.7641         161970   19             29             39130          31396          91396          1.2245161e-11
       318   3021.4191         162173   19             29             38802          31908          91415          1.2228628e-11
       319   3044.9359         162566   19             29             38683          32389          91446          1.225878e-11 
       320   3069.0613         162968   18             29             38621          32832          91468          1.2264201e-11
Loop time of 3069.06 on 16 procs for 320 steps with 162968 atoms

97.5% CPU use with 16 MPI tasks x 1 OpenMP threads

MPI task timing breakdown:
Section |  min time  |  avg time  |  max time  |%varavg| %total
---------------------------------------------------------------
Pair    | 810.22     | 917.21     | 1102.8     | 274.9 | 29.89
Neigh   | 593.41     | 698.33     | 931.16     | 364.4 | 22.75
Comm    | 357.29     | 423.08     | 493.69     | 228.4 | 13.79
Output  | 48.236     | 48.236     | 48.238     |   0.0 |  1.57
Modify  | 493.2      | 968.11     | 1184.5     | 647.3 | 31.54
Other   |            | 14.1       |            |       |  0.46

Nlocal:        10185.5 ave       14543 max        8546 min
Histogram: 6 2 4 0 2 0 0 0 0 2
Nghost:        7924.75 ave       10163 max        6856 min
Histogram: 5 2 3 2 0 0 2 0 0 2
Neighs:         102173 ave      118405 max       91953 min
Histogram: 3 0 7 1 0 1 1 1 0 2

Total # of neighbors = 1634770
Ave neighs/atom = 10.031233
Neighbor list builds = 28237
Dangerous builds = 27917

Total wall time: 0:51:39
