LAMMPS (23 Jun 2022 - Update 4)
  using 1 OpenMP thread(s) per MPI task
package omp 0
using multi-threaded neighbor list subroutines
#-----------------------------------------------------------------------------#
#                NUFEB Simulation: Heterotrophic Biofilm Growth               #
#-----------------------------------------------------------------------------#


#-----------------------------System Settings---------------------------------#

units si                                    # using si units (m, s, kg)
atom_style      coccus                      # using nufeb coccus atom style
atom_modify     map array sort 10 0         # map array - find atoms using indices
		                            # sort every 10

boundary        pp pp ff                    # periodic boundaries in x and y
                                            # fixed boundary in z

newton          off                         # forces between local and ghost
                                            # atoms are computed in each
					     # processor without communication

processors      * * 1                       # processor grid

comm_modify     vel yes                     # communicate velocities for ghost atoms

read_data       atom_ch.in	             # read atom.in file which defines domain size
Reading data file ...
  orthogonal box = (0 0 0) to (6e-05 6e-05 6e-05)
  4 by 4 by 1 MPI processor grid
  reading atoms ...
  150 atoms
  read_data CPU = 0.013 seconds
                                            # and initial atoms


#--------------------Microbes and Functional Groups-------------------------#

group           CROSS1   type 1               # assign type 1,2 atoms to CROSS group
50 atoms in group CROSS1
group           CROSS2   type 2
50 atoms in group CROSS2
group		CHEATER  type 3
50 atoms in group CHEATER
group           dead     type 4
0 atoms in group dead
group		EPS	 type 5
0 atoms in group EPS

neighbor        5e-7 bin                   # setting neighbour skin distance and style

neigh_modify    check yes                  # rebuild neighbour list if any atom
                                           # had moved more than half the skin distance


#--------------------------Mesh Grid and Substrates--------------------------#

# defining grid sytle, substrate names, and grid size
grid_style      nufeb/chemostat 3 sub metab1 metab2 5e-6

# set diffusion boundary conditions and initial concentrations (liquid:kg/m3)
grid_modify     set sub      pp pp nd  1.8e-4
No /omp style for force computation currently active
grid_modify     set metab1   pp pp nd  1e-4
No /omp style for force computation currently active
grid_modify     set metab2   pp pp nd  1e-4
No /omp style for force computation currently active


#--------------------------Biological Processes-------------------------------#

# heterotrophs growth
fix growth_cross1 CROSS1 nufeb/growth/cross1 sub 3.5e-5 metab2 4e-3 metab1 growth 0.009 yield 0.6 decay 2.6e-6 metab1_exp 20 epsyield 0.12 epsdens 30

fix growth_cross2 CROSS2 nufeb/growth/cross2 sub 3.5e-5 metab1 4e-3 metab2 growth 0.009 yield 0.6 decay 2.6e-6 metab2_exp 20 epsyield 0.12 epsdens 30

fix growth_cheater CHEATER nufeb/growth/cheater sub 3.5e-5 metab1 1e-3 metab2 1e-3 growth 0.009 yield 0.6 decay 2.6e-6

# heterotrophs division, division diameter: 1.36e-6
fix div1 CROSS1 nufeb/division/coccus 1.36e-6 1192
fix div2 CROSS2 nufeb/division/coccus 1.36e-6 4462
fix div3 CHEATER nufeb/division/coccus 1.36e-6 9910

fix death1 CROSS1 nufeb/death/diameter dead 5.43e-7
fix death2 CROSS2 nufeb/death/diameter dead 5.43e-7
fix death3 CHEATER nufeb/death/diameter dead 5.43e-7

# EPS secretion from heterotrophs
fix eps1 CROSS1 nufeb/eps_secretion 5 EPS 1.1 30 17536
fix eps2 CROSS2 nufeb/eps_secretion 5 EPS 1.1 30 27340

#---------------------------Physical Processes--------------------------------#

pair_style  gran/hooke/history 1e-4 NULL 1e-5 NULL 0.0 0    # pairwise interaction
pair_coeff  * *                                             # between atoms

# pairwise interaction between z-wall and atoms
fix wall all wall/gran hooke/history 1e-3 NULL 1e-4 NULL 0 0 zplane 0.0 1e-04

fix vis all viscous 1e-5                                    # viscous damping force

fix grav all gravity 9.81 vector 0.0 0.0 -1.0

fix nve all nve/limit 1e-7                                  # NVE integration with
                                                            # maximum distance limit


#---------------------------Post-Physical Processes---------------------------#

fix coeff_sub all nufeb/diffusion_coeff sub ratio 0.8       # defining diffusion coeff in the biofilm
fix coeff_metab1 all nufeb/diffusion_coeff metab1 ratio 0.8    # region is 80% of the value in liquid
fix coeff_metab2 all nufeb/diffusion_coeff metab2 ratio 0.8

#---------------------------Chemical Processes---------------------------------#

fix diff_sub all nufeb/diffusion_reaction sub 1e-9        # diffusion reaction for updating
fix diff_metab1 all nufeb/diffusion_reaction metab1 4e-9     # distribusion of substrate concentration
fix diff_metab2 all nufeb/diffusion_reaction metab2 4e-9

#--------------------------Computations and Outputs----------------------------#

variable mass equal "mass(all)"                             # total mass
variable ncross1 equal "count(CROSS1)"                      # total # of CROSS1
variable ncross2 equal "count(CROSS2)"                      # total # of CROSS2
variable ncheater equal "count(CHEATER)"
variable ndead equal "count(dead)"
variable neps equal "count(EPS)"

shell mkdir vtk_EPS_ch                                            # dump vtk files to /vtk folder
dump du1 all vtk 10 vtk_EPS_ch/dump*.vtu id type diameter         # require build NUFEB with vtk option
dump du2 all grid/vtk 10 vtk_EPS_ch/dump_%_*.vti con rea den gro

#dump du3 all movie 10 movie.avi type diameter view 80 60    # dump video
#dump_modify du3 acolor 1 blue acolor 2 lightgrey framerate 10


                                                            # dump hdf5 files to /hdf5 folder
#shell mkdir hdf5                                           # require build NUFEB with hdf5 option
#dump du3 all nufeb/hdf5 10 dump.h5 id type x y z vx vy vz fx fy fz radius conc reac

thermo_style custom step cpu atoms v_ncross1 v_ncross2 v_ncheater v_ndead v_neps v_mass     # screen and log outputs
thermo 1
thermo_modify   lost ignore

#-----------------------------------Run----------------------------------------#

# issue run command, define timesteps for physical (pairdt) and chemical (diffdt) processes
run_style nufeb diffdt 1e-4 difftol 1e-6 pairdt 1e-2 pairtol 1 pairmax 1000 diffmax 5000

timestep 12000                                               # define biological timesteps (1000s)

run 320                                                    # growing biofilm for 900x1000s
Generated 0 of 6 mixed pair_coeff terms from geometric mixing rule
Last active /omp style is pair_style gran/hooke/history/omp
Neighbor list info ...
  update every 1 steps, delay 10 steps, check yes
  max neighbors/atom: 2000, page size: 100000
  master list distance cutoff = 2.49e-06
  ghost atom cutoff = 2.49e-06
  binsize = 1.245e-06, bins = 49 49 49
  1 neighbor lists, perpetual/occasional/extra = 1 0 0
  (1) pair gran/hooke/history/omp, perpetual
      attributes: half, newton off, size, history, omp
      pair build: half/size/bin/newtoff/omp
      stencil: full/bin/3d
      bin: standard
Per MPI rank memory allocation (min/avg/max) = 11.02 | 11.02 | 11.02 Mbytes
   Step          CPU          Atoms      v_ncross1      v_ncross2      v_ncheater      v_ndead         v_neps         v_mass    
         0   0                    150   50             50             50             0              0              1.3295396e-13
         1   0.38373105           432   90             85             86             0              171            1.7267354e-13
         2   0.76753862           793   118            126            137            0              412            1.957847e-13 
         3   1.0902366           1115   128            140            180            0              667            2.1549974e-13
         4   1.4063382           1427   137            150            206            0              934            2.3375256e-13
         5   1.6243383           1737   143            157            220            0              1217           2.5166213e-13
         6   1.7973412           2058   146            166            239            0              1507           2.6927503e-13
         7   1.9602332           2392   152            177            257            0              1806           2.8651307e-13
         8   2.1129462           2747   163            181            281            0              2122           3.0335623e-13
         9   2.2830692           3134   170            199            305            0              2460           3.200372e-13 
        10   7.8709483           3500   175            209            322            0              2794           3.3621504e-13
        11   7.9911114           3883   177            214            342            0              3150           3.5210521e-13
        12   8.1198305           4248   182            219            361            0              3486           3.67489e-13  
        13   8.2680737           4642   187            225            377            0              3853           3.8253751e-13
        14   8.3611034           5025   191            232            392            0              4210           3.9721836e-13
        15   8.4859582           5404   194            236            412            0              4562           4.1142186e-13
        16   8.6124729           5795   199            240            433            0              4923           4.2579064e-13
        17   8.7146525           6174   202            243            456            0              5273           4.3962561e-13
        18   8.8247356           6571   208            250            473            0              5640           4.5310403e-13
        19   8.9281586           6964   213            255            489            0              6007           4.6625416e-13
        20   19.165847           7360   220            260            503            0              6377           4.7886096e-13
        21   19.286679           7769   222            265            529            0              6753           4.9133612e-13
        22   19.432809           8175   227            270            553            0              7125           5.0356192e-13
        23   19.571145           8574   232            274            568            0              7500           5.1569923e-13
        24   19.686018           8976   236            279            589            0              7872           5.2783454e-13
        25   19.809579           9363   241            280            607            0              8235           5.393587e-13 
        26   19.944177           9788   248            284            633            0              8623           5.5086624e-13
        27   20.061187          10176   253            286            649            0              8988           5.6203741e-13
        28   20.210381          10564   257            289            657            0              9361           5.7295096e-13
        29   20.341733          10961   259            291            677            0              9734           5.8364274e-13
        30   20.535299          11360   261            295            687            0              10117          5.9429839e-13
        31   20.69056           11741   264            296            707            0              10474          6.0460108e-13
        32   20.860576          12138   265            299            722            0              10852          6.1511648e-13
        33   21.026893          12532   266            303            748            0              11215          6.2547415e-13
        34   21.235719          12918   268            306            766            0              11578          6.3545073e-13
        35   21.413041          13307   271            309            778            0              11949          6.456216e-13 
        36   21.642611          13709   274            310            802            0              12323          6.555718e-13 
        37   21.839378          14082   274            311            827            0              12670          6.6548058e-13
        38   22.078825          14473   276            313            839            0              13045          6.7510495e-13
        39   22.33472           14854   280            313            850            0              13411          6.8431396e-13
        40   22.732933          15254   282            315            877            0              13780          6.9356644e-13
        41   22.998444          15640   284            319            896            0              14141          7.0240292e-13
        42   23.30639           16034   286            322            910            0              14516          7.106269e-13 
        43   23.659489          16419   286            323            924            0              14886          7.1901714e-13
        44   24.747542          16788   286            325            946            0              15231          7.2746572e-13
        45   25.370087          17188   287            328            962            0              15611          7.3672079e-13
        46   25.967748          17578   288            329            991            0              15970          7.4572611e-13
        47   27.020127          17961   290            330            1012           0              16329          7.5525094e-13
        48   28.079574          18355   294            332            1030           0              16699          7.6535602e-13
        49   29.159298          18741   297            335            1051           0              17058          7.7557584e-13
        50   30.323034          19128   298            336            1078           0              17416          7.8624352e-13
        51   31.417655          19511   298            336            1102           0              17775          7.9706272e-13
        52   32.520268          19910   299            336            1130           0              18145          8.0739427e-13
        53   33.631056          20291   299            338            1163           0              18491          8.1787192e-13
        54   34.756239          20683   299            342            1183           0              18859          8.2821813e-13
        55   35.876405          21071   299            342            1214           0              19216          8.3844343e-13
        56   37.026964          21467   299            342            1245           0              19581          8.4842384e-13
        57   38.247031          21846   299            344            1276           0              19927          8.5846146e-13
        58   39.429669          22232   300            344            1305           1              20282          8.6869559e-13
        59   40.644497          22607   301            345            1324           3              20634          8.7853385e-13
        60   41.92336           22987   302            347            1355           5              20978          8.8822245e-13
        61   43.22087           23401   305            347            1395           7              21347          8.9781304e-13
        62   44.573992          23774   306            348            1424           10             21686          9.0790003e-13
        63   45.931115          24161   307            348            1447           13             22046          9.1838862e-13
        64   47.350617          24551   310            348            1486           13             22394          9.2914222e-13
        65   48.777196          24947   314            348            1522           15             22748          9.4071553e-13
        66   50.24853           25331   316            348            1555           18             23094          9.529856e-13 
        67   51.717425          25727   318            349            1594           23             23443          9.6588254e-13
        68   53.229904          26095   319            350            1619           29             23778          9.7913794e-13
        69   54.741491          26496   321            350            1665           35             24125          9.9275451e-13
        70   56.326197          26896   321            352            1707           40             24476          1.0067627e-12
        71   57.832004          27277   321            352            1750           44             24810          1.0207069e-12
        72   59.314676          27675   321            353            1792           51             25158          1.0345667e-12
        73   60.855248          28047   321            353            1829           60             25484          1.0482256e-12
        74   62.42533           28454   322            355            1868           69             25840          1.0619197e-12
        75   64.047588          28814   324            355            1887           87             26161          1.0754989e-12
        76   65.782774          29213   325            356            1932           98             26502          1.0894468e-12
        77   67.502221          29605   326            357            1972           112            26838          1.1044653e-12
        78   69.311019          30001   326            357            2019           127            27172          1.1197677e-12
        79   71.153515          30389   327            358            2072           138            27494          1.1358285e-12
        80   73.069592          30794   327            358            2127           152            27830          1.1532486e-12
        81   74.927298          31172   328            358            2182           159            28145          1.170916e-12 
        82   76.788232          31572   328            359            2240           168            28477          1.1887418e-12
        83   78.67242           31962   328            359            2291           181            28803          1.2065343e-12
        84   80.60576           32355   329            360            2348           189            29129          1.2241925e-12
        85   82.594838          32731   330            360            2395           202            29444          1.2420248e-12
        86   84.619194          33101   331            361            2442           214            29753          1.260145e-12 
        87   86.699999          33498   331            361            2504           218            30084          1.2787016e-12
        88   88.837007          33893   332            361            2585           226            30389          1.2976773e-12
        89   91.00553           34299   332            361            2652           234            30720          1.3179984e-12
        90   93.292153          34683   332            361            2719           246            31025          1.3389556e-12
        91   95.547253          35067   333            361            2786           255            31332          1.3606309e-12
        92   97.814545          35465   334            361            2865           257            31648          1.3828745e-12
        93   100.09989          35860   335            362            2950           266            31947          1.4054173e-12
        94   102.43799          36245   336            362            3023           270            32254          1.4279643e-12
        95   104.78748          36635   336            362            3104           276            32557          1.451022e-12 
        96   107.18933          37021   336            362            3185           279            32859          1.4739632e-12
        97   109.62931          37398   336            362            3266           287            33147          1.497301e-12 
        98   112.09621          37805   336            365            3359           294            33451          1.5211296e-12
        99   114.58881          38226   336            365            3463           297            33765          1.5455018e-12
       100   117.22114          38598   337            365            3557           303            34036          1.5699085e-12
       101   119.80994          38980   337            365            3639           312            34327          1.5951909e-12
       102   122.42718          39404   337            365            3745           323            34634          1.6213091e-12
       103   125.06608          39770   337            365            3821           331            34916          1.6478796e-12
       104   127.74704          40155   337            365            3921           335            35197          1.6743493e-12
       105   130.46898          40584   337            366            4036           341            35504          1.7011475e-12
       106   133.24024          40976   337            366            4127           352            35794          1.7275158e-12
       107   136.05112          41375   338            366            4223           361            36087          1.7539191e-12
       108   138.91175          41759   338            366            4302           388            36365          1.7802502e-12
       109   141.81913          42147   338            366            4396           405            36642          1.8070176e-12
       110   144.86061          42576   338            366            4489           435            36948          1.8345832e-12
       111   147.82383          42940   338            366            4562           461            37213          1.8626706e-12
       112   150.85193          43345   338            366            4659           483            37499          1.8913781e-12
       113   153.93826          43754   338            367            4759           508            37782          1.9210969e-12
       114   157.07002          44153   338            367            4855           535            38058          1.9518299e-12
       115   160.21426          44556   338            368            4949           562            38339          1.982883e-12 
       116   163.40149          44942   338            368            5027           591            38618          2.0142769e-12
       117   166.64913          45349   338            368            5151           612            38880          2.0455522e-12
       118   169.95039          45776   338            368            5236           642            39192          2.0770628e-12
       119   173.28857          46167   338            368            5339           670            39452          2.108653e-12 
       120   176.80883          46576   338            368            5448           697            39725          2.1414825e-12
       121   180.25891          47021   338            368            5569           717            40029          2.1753116e-12
       122   183.7447           47411   338            369            5679           746            40279          2.2098797e-12
       123   187.27925          47840   338            369            5796           779            40558          2.2456998e-12
       124   190.88991          48260   338            369            5919           806            40828          2.2821038e-12
       125   194.56159          48685   338            369            6056           835            41087          2.3198364e-12
       126   198.30487          49138   338            370            6182           867            41381          2.3581112e-12
       127   202.1148           49544   338            370            6318           887            41631          2.3966818e-12
       128   205.96165          49962   338            370            6440           919            41895          2.4354531e-12
       129   209.86115          50418   338            371            6571           960            42178          2.4740729e-12
       130   213.97804          50867   338            371            6724           996            42438          2.5132431e-12
       131   218.07087          51301   338            372            6847           1037           42707          2.5540634e-12
       132   222.17035          51721   338            372            6977           1077           42957          2.596245e-12 
       133   226.33704          52172   337            372            7107           1125           43231          2.6406453e-12
       134   230.58213          52626   337            371            7241           1176           43501          2.6874057e-12
       135   234.89801          53082   337            371            7405           1213           43756          2.7357796e-12
       136   239.27824          53558   337            371            7554           1262           44034          2.7862766e-12
       137   243.75222          54020   337            372            7701           1316           44294          2.8370797e-12
       138   248.29599          54486   337            373            7865           1362           44549          2.8890539e-12
       139   252.91487          54972   337            373            8022           1423           44817          2.9416665e-12
       140   257.77908          55472   337            373            8206           1483           45073          2.9971153e-12
       141   262.58488          55926   336            373            8341           1542           45334          3.056313e-12 
       142   267.45624          56438   336            371            8535           1604           45592          3.117856e-12 
       143   272.42598          56961   336            371            8737           1657           45860          3.1826771e-12
       144   277.4849           57455   336            371            8924           1717           46107          3.2521861e-12
       145   282.62949          58017   336            371            9153           1779           46378          3.3239225e-12
       146   287.87419          58546   336            372            9379           1834           46625          3.3980708e-12
       147   293.21457          59095   336            372            9615           1881           46891          3.4744362e-12
       148   298.63294          59660   336            371            9866           1944           47143          3.5573307e-12
       149   304.15524          60243   336            371            10116          2021           47399          3.6485775e-12
       150   309.89865          60824   336            372            10396          2078           47642          3.7474653e-12
       151   315.66112          61494   336            372            10741          2129           47916          3.8555092e-12
       152   321.50191          62110   335            371            11066          2182           48156          3.9711888e-12
       153   327.46794          62782   335            371            11429          2245           48402          4.094597e-12 
       154   333.54665          63480   335            371            11796          2297           48681          4.2221009e-12
       155   339.75977          64187   335            371            12211          2357           48913          4.3588922e-12
       156   346.13569          64943   334            371            12653          2419           49166          4.4996519e-12
       157   352.64215          65645   334            372            13048          2471           49420          4.6391047e-12
       158   359.27245          66391   333            372            13478          2539           49669          4.7705376e-12
       159   366.06016          67132   333            372            13924          2585           49918          4.9059605e-12
       160   373.17762          67828   333            372            14313          2653           50157          5.0474696e-12
       161   380.27411          68583   333            372            14771          2712           50395          5.1949558e-12
       162   387.5249           69390   332            372            15260          2771           50655          5.3475552e-12
       163   394.91287          70134   331            372            15699          2853           50879          5.4970128e-12
       164   402.44032          70921   331            372            16156          2938           51124          5.6426746e-12
       165   410.11732          71713   331            372            16672          2983           51355          5.7883601e-12
       166   417.97863          72494   331            372            17135          3057           51599          5.9500428e-12
       167   425.92766          73311   330            372            17645          3136           51828          6.1031268e-12
       168   434.00393          74132   330            371            18148          3228           52055          6.2717198e-12
       169   442.22191          74948   330            371            18660          3319           52268          6.4483753e-12
       170   450.72198          75820   330            370            19186          3431           52503          6.6233095e-12
       171   459.18888          76671   330            370            19746          3520           52705          6.7991795e-12
       172   467.72165          77574   329            369            20331          3620           52925          6.9945188e-12
       173   476.33059          78474   328            369            20911          3722           53144          7.1792453e-12
       174   485.04616          79389   328            370            21527          3828           53336          7.3781536e-12
       175   493.81147          80271   328            369            22080          3965           53529          7.5817582e-12
       176   502.62231          81245   328            368            22769          4062           53718          7.7813693e-12
       177   511.50512          82136   327            366            23336          4196           53911          7.9775977e-12
       178   520.46497          83132   327            366            24038          4319           54082          8.2044997e-12
       179   529.47647          84055   327            364            24668          4452           54244          8.4062294e-12
       180   538.7089           84973   327            363            25300          4576           54407          8.6126193e-12
       181   547.80745          85926   327            363            25975          4705           54556          8.8286104e-12
       182   556.97544          86942   327            362            26691          4842           54720          9.0439778e-12
       183   566.22969          87884   323            362            27361          4981           54857          9.2454185e-12
       184   575.54395          88898   323            362            28094          5125           54994          9.4687542e-12
       185   584.88011          89716   323            360            28632          5296           55105          9.6772762e-12
       186   594.2613           90630   321            360            29251          5490           55208          9.8856136e-12
       187   603.65655          91611   321            356            29930          5677           55327          1.0070992e-11
       188   613.08649          92552   320            356            30577          5863           55436          1.0253705e-11
       189   622.66357          93425   320            353            31150          6070           55532          1.0440959e-11
       190   632.52146          94330   318            350            31779          6270           55613          1.0639519e-11
       191   642.16889          95149   317            349            32308          6479           55696          1.0809135e-11
       192   651.82898          96016   316            347            32841          6717           55795          1.0973839e-11
       193   661.52944          96881   315            342            33346          6987           55891          1.1100091e-11
       194   671.27454          97570   314            337            33711          7264           55944          1.1227572e-11
       195   681.06268          98330   314            336            34130          7542           56008          1.1356602e-11
       196   690.88597          99057   313            335            34499          7838           56072          1.146045e-11 
       197   700.72358          99707   312            331            34830          8112           56122          1.154308e-11 
       198   710.54912         100383   310            327            35192          8374           56180          1.1615997e-11
       199   720.40224         101102   309            321            35585          8646           56241          1.1721221e-11
       200   730.65071         101703   308            319            35883          8904           56289          1.1766289e-11
       201   740.61906         102319   304            317            36217          9139           56342          1.1831146e-11
       202   750.67125         102950   300            311            36578          9374           56387          1.1891951e-11
       203   760.74006         103565   297            309            36888          9625           56446          1.1937305e-11
       204   770.84192         104141   294            303            37197          9862           56485          1.2000161e-11
       205   780.96994         104676   291            300            37422          10138          56525          1.2018913e-11
       206   791.11989         105191   285            294            37628          10415          56569          1.2042652e-11
       207   801.29049         105771   279            290            37892          10695          56615          1.2073497e-11
       208   811.48221         106251   273            284            38057          10983          56654          1.2078237e-11
       209   821.66332         106721   271            270            38234          11252          56694          1.2097619e-11
       210   832.18323         107263   270            265            38474          11518          56736          1.2123941e-11
       211   842.46098         107745   262            254            38622          11832          56775          1.2121292e-11
       212   852.83688         108217   261            249            38774          12118          56815          1.2122857e-11
       213   863.26868         108683   256            242            38897          12441          56847          1.2117535e-11
       214   873.75435         109118   249            231            38979          12771          56888          1.2123052e-11
       215   884.27899         109572   242            221            39076          13111          56922          1.2112317e-11
       216   894.84155         110060   230            217            39235          13411          56967          1.2117069e-11
       217   905.42563         110445   227            206            39295          13705          57012          1.2094364e-11
       218   916.05243         110906   220            198            39432          13995          57061          1.2099649e-11
       219   926.75338         111426   204            190            39644          14291          57097          1.2109133e-11
       220   937.80042         111816   193            185            39678          14628          57132          1.2085263e-11
       221   948.60961         112255   187            174            39782          14945          57167          1.2089129e-11
       222   959.49936         112662   175            165            39822          15299          57201          1.2077694e-11
       223   970.41635         113152   166            159            39992          15583          57252          1.2085482e-11
       224   981.38513         113620   156            150            40148          15883          57283          1.2096335e-11
       225   992.42408         114067   152            142            40274          16181          57318          1.2077638e-11
       226   1003.4739         114437   146            129            40325          16482          57355          1.2068322e-11
       227   1014.5543         114773   139            121            40327          16788          57398          1.2059564e-11
       228   1025.6797         115191   134            114            40437          17065          57441          1.2043363e-11
       229   1036.8893         115619   123            108            40505          17409          57474          1.2039438e-11
       230   1048.4026         116113   115            105            40649          17738          57506          1.2047863e-11
       231   1059.653          116469   107            96             40672          18047          57547          1.2027002e-11
       232   1070.9851         116830   98             91             40684          18379          57578          1.2018402e-11
       233   1082.326          117235   90             83             40722          18731          57609          1.2016175e-11
       234   1093.6956         117585   78             78             40728          19061          57640          1.2002896e-11
       235   1105.1329         118020   75             76             40818          19372          57679          1.2003434e-11
       236   1116.5895         118360   68             74             40782          19722          57714          1.2005115e-11
       237   1128.0747         118785   67             66             40833          20076          57743          1.1995613e-11
       238   1139.6397         119217   61             64             40904          20411          57777          1.2004102e-11
       239   1151.2301         119587   53             60             40906          20765          57803          1.1990289e-11
       240   1163.1584         119943   50             58             40858          21146          57831          1.1989362e-11
       241   1174.8836         120306   45             54             40839          21498          57870          1.1985401e-11
       242   1186.6317         120687   43             53             40797          21896          57898          1.1994825e-11
       243   1198.4043         121075   38             53             40776          22286          57922          1.1984725e-11
       244   1210.2465         121499   37             50             40783          22672          57957          1.2010908e-11
       245   1222.1549         121866   34             47             40687          23115          57983          1.1995945e-11
       246   1234.0933         122258   32             45             40623          23558          58000          1.1993504e-11
       247   1246.0766         122567   31             42             40451          24008          58035          1.1988052e-11
       248   1258.1015         122906   30             41             40282          24492          58061          1.2008982e-11
       249   1270.1855         123344   29             40             40247          24944          58084          1.2004654e-11
       250   1282.5976         123682   28             39             40053          25448          58114          1.1994459e-11
       251   1294.7544         124066   26             39             39957          25911          58133          1.2006006e-11
       252   1306.9208         124384   26             39             39758          26396          58165          1.2002383e-11
       253   1319.1291         124751   24             39             39637          26862          58189          1.201078e-11 
       254   1331.362          125070   23             39             39431          27367          58210          1.2000976e-11
       255   1343.6231         125399   22             38             39255          27842          58242          1.2006643e-11
       256   1355.9326         125818   21             38             39166          28329          58264          1.2025635e-11
       257   1368.2421         126181   21             38             39013          28815          58294          1.2022042e-11
       258   1380.6044         126509   20             38             38799          29339          58313          1.2032683e-11
       259   1393.003          126863   19             38             38644          29820          58342          1.2048201e-11
       260   1405.7371         127249   17             37             38599          30227          58369          1.207179e-11 
       261   1418.2674         127654   17             37             38521          30686          58393          1.2070103e-11
       262   1430.836          127868   16             37             38247          31149          58419          1.2059202e-11
       263   1443.4448         128288   16             37             38154          31637          58444          1.207251e-11 
       264   1456.1151         128559   15             36             37942          32098          58468          1.207046e-11 
       265   1468.8608         128974   14             36             37884          32552          58488          1.2089224e-11
       266   1481.6748         129336   14             36             37775          32995          58516          1.2106215e-11
       267   1494.4621         129633   14             36             37604          33441          58538          1.2103813e-11
       268   1507.2081         129988   14             36             37540          33832          58566          1.2105406e-11
       269   1520.123          130325   14             34             37444          34250          58583          1.2122101e-11
       270   1533.4048         130654   14             34             37299          34692          58615          1.2131575e-11
       271   1546.4751         130959   14             33             37189          35091          58632          1.2146558e-11
       272   1559.6498         131328   14             33             37073          35552          58656          1.2136488e-11
       273   1572.8198         131629   14             32             36949          35954          58680          1.2119477e-11
       274   1585.933          132000   14             32             36937          36313          58704          1.2158905e-11
       275   1599.2015         132283   12             31             36778          36738          58724          1.2149459e-11
       276   1612.488          132579   12             31             36690          37098          58748          1.2169418e-11
       277   1625.6315         132969   12             31             36692          37464          58770          1.2190382e-11
       278   1638.9705         133292   12             31             36610          37846          58793          1.2187672e-11
       279   1652.1869         133555   12             31             36494          38203          58815          1.2198126e-11
       280   1665.7981         133932   12             31             36477          38575          58837          1.2207794e-11
       281   1679.0809         134206   12             31             36386          38917          58860          1.2226052e-11
       282   1692.4447         134606   12             31             36418          39260          58885          1.2234083e-11
       283   1705.935          134900   12             31             36307          39647          58903          1.2228106e-11
       284   1719.402          135305   12             31             36352          39981          58929          1.226437e-11 
       285   1732.8754         135609   12             31             36301          40317          58948          1.227768e-11 
       286   1746.4126         135891   12             31             36221          40652          58975          1.2265796e-11
       287   1760.0432         136163   12             31             36127          40999          58994          1.2264556e-11
       288   1773.6471         136538   12             31             36131          41342          59022          1.2311369e-11
       289   1787.3539         136898   12             31             36149          41668          59038          1.2294603e-11
       290   1801.3984         137243   12             31             36129          42003          59068          1.2317008e-11
       291   1815.2177         137528   12             31             36090          42309          59086          1.2322747e-11
       292   1829.2721         137755   12             30             35960          42641          59112          1.2325829e-11
       293   1843.1595         138112   12             30             35955          42986          59129          1.2323103e-11
       294   1857.0683         138516   12             30             36016          43300          59158          1.2358529e-11
       295   1871.0165         138803   12             30             35982          43603          59176          1.2353376e-11
       296   1885.0733         139103   12             30             35960          43899          59202          1.2354929e-11
       297   1899.1644         139428   12             30             35937          44225          59224          1.2386804e-11
       298   1913.2317         139706   12             30             35889          44530          59245          1.2390423e-11
       299   1927.3413         140092   12             30             35955          44825          59270          1.2411153e-11
       300   1941.8745         140426   12             30             35946          45149          59289          1.241033e-11 
       301   1956.0747         140724   12             30             35898          45466          59318          1.2416419e-11
       302   1970.3265         141057   12             30             35936          45746          59333          1.243533e-11 
       303   1984.6655         141385   12             30             35913          46070          59360          1.2455928e-11
       304   1999.0454         141658   12             30             35869          46369          59378          1.2463753e-11
       305   2013.4304         141983   12             30             35837          46699          59405          1.246966e-11 
       306   2027.921          142343   12             30             35849          47027          59425          1.2477365e-11
       307   2042.5222         142660   11             30             35843          47327          59449          1.2491616e-11
       308   2056.9886         142907   11             30             35733          47664          59469          1.2490786e-11
       309   2071.6002         143254   11             30             35761          47961          59491          1.2516797e-11
       310   2086.6308         143535   11             30             35686          48295          59513          1.2504927e-11
       311   2101.2995         143852   11             30             35654          48620          59537          1.2520019e-11
       312   2115.9586         144242   11             30             35729          48912          59560          1.2549707e-11
       313   2130.7016         144450   11             30             35614          49212          59583          1.2546236e-11
       314   2145.5474         144845   11             30             35656          49543          59605          1.2556985e-11
       315   2160.321          145155   11             30             35619          49868          59627          1.2592456e-11
       316   2175.2051         145432   11             30             35589          50154          59648          1.2575369e-11
       317   2190.1609         145839   11             30             35677          50450          59671          1.2607255e-11
       318   2205.169          146093   11             30             35624          50735          59693          1.2593219e-11
       319   2220.1799         146416   11             30             35630          51028          59717          1.2607796e-11
       320   2235.5665         146730   11             30             35627          51325          59737          1.2634679e-11
Loop time of 2235.57 on 16 procs for 320 steps with 146730 atoms

98.3% CPU use with 16 MPI tasks x 1 OpenMP threads

MPI task timing breakdown:
Section |  min time  |  avg time  |  max time  |%varavg| %total
---------------------------------------------------------------
Pair    | 560.02     | 635.13     | 789.53     | 312.6 | 28.41
Neigh   | 448.86     | 544.01     | 764.73     | 493.0 | 24.33
Comm    | 195.07     | 231.25     | 266.85     | 176.7 | 10.34
Output  | 21.475     | 21.475     | 21.476     |   0.0 |  0.96
Modify  | 383.17     | 792.4      | 989.53     | 752.6 | 35.44
Other   |            | 11.32      |            |       |  0.51

Nlocal:        9170.62 ave       12238 max        7855 min
Histogram: 8 3 1 0 0 0 0 0 0 4
Nghost:           7134 ave        9373 max        6065 min
Histogram: 4 6 2 0 0 0 0 0 1 3
Neighs:        90071.9 ave      101235 max       82994 min
Histogram: 3 3 2 1 2 1 0 1 1 2

Total # of neighbors = 1441150
Ave neighs/atom = 9.8217815
Neighbor list builds = 27907
Dangerous builds = 27587

Total wall time: 0:37:16
