LAMMPS (23 Jun 2022 - Update 4)
  using 1 OpenMP thread(s) per MPI task
package omp 0
using multi-threaded neighbor list subroutines
#-----------------------------------------------------------------------------#
#                NUFEB Simulation: Heterotrophic Biofilm Growth               #
#-----------------------------------------------------------------------------#


#-----------------------------System Settings---------------------------------#

units si                                    # using si units (m, s, kg)
atom_style      coccus                      # using nufeb coccus atom style
atom_modify     map array sort 10 0         # map array - find atoms using indices
		                            # sort every 10

boundary        pp pp ff                    # periodic boundaries in x and y
                                            # fixed boundary in z

newton          off                         # forces between local and ghost
                                            # atoms are computed in each
					     # processor without communication

processors      * * 1                       # processor grid

comm_modify     vel yes                     # communicate velocities for ghost atoms

read_data       atom_ch.in	             # read atom.in file which defines domain size
Reading data file ...
  orthogonal box = (0 0 0) to (6e-05 6e-05 6e-05)
  4 by 4 by 1 MPI processor grid
  reading atoms ...
  150 atoms
  read_data CPU = 0.011 seconds
                                            # and initial atoms


#--------------------Microbes and Functional Groups-------------------------#

group           CROSS1   type 1               # assign type 1,2 atoms to CROSS group
50 atoms in group CROSS1
group           CROSS2   type 2
50 atoms in group CROSS2
group		CHEATER  type 3
50 atoms in group CHEATER
group           dead     type 4
0 atoms in group dead
group		EPS	 type 5
0 atoms in group EPS

neighbor        5e-7 bin                   # setting neighbour skin distance and style

neigh_modify    check yes                  # rebuild neighbour list if any atom
                                           # had moved more than half the skin distance


#--------------------------Mesh Grid and Substrates--------------------------#

# defining grid sytle, substrate names, and grid size
grid_style      nufeb/chemostat 3 sub metab1 metab2 5e-6

# set diffusion boundary conditions and initial concentrations (liquid:kg/m3)
grid_modify     set sub      pp pp nd  1.8e-4
No /omp style for force computation currently active
grid_modify     set metab1   pp pp nd  1e-4
No /omp style for force computation currently active
grid_modify     set metab2   pp pp nd  1e-4
No /omp style for force computation currently active


#--------------------------Biological Processes-------------------------------#

# heterotrophs growth
fix growth_cross1 CROSS1 nufeb/growth/cross1 sub 3.5e-5 metab2 4e-3 metab1 growth 0.009 yield 0.6 decay 2.6e-6 metab1_exp 20 epsyield 0.12 epsdens 30

fix growth_cross2 CROSS2 nufeb/growth/cross2 sub 3.5e-5 metab1 4e-3 metab2 growth 0.009 yield 0.6 decay 2.6e-6 metab2_exp 20 epsyield 0.12 epsdens 30

fix growth_cheater CHEATER nufeb/growth/cheater sub 3.5e-5 metab1 1e-3 metab2 1e-3 growth 0.009 yield 0.6 decay 2.6e-6

# heterotrophs division, division diameter: 1.36e-6
fix div1 CROSS1 nufeb/division/coccus 1.36e-6 1547
fix div2 CROSS2 nufeb/division/coccus 1.36e-6 5882
fix div3 CHEATER nufeb/division/coccus 1.36e-6 13105

fix death1 CROSS1 nufeb/death/diameter dead 5.43e-7
fix death2 CROSS2 nufeb/death/diameter dead 5.43e-7
fix death3 CHEATER nufeb/death/diameter dead 5.43e-7

# EPS secretion from heterotrophs
fix eps1 CROSS1 nufeb/eps_secretion 5 EPS 1.1 30 23216
fix eps2 CROSS2 nufeb/eps_secretion 5 EPS 1.1 30 36215

#---------------------------Physical Processes--------------------------------#

pair_style  gran/hooke/history 1e-4 NULL 1e-5 NULL 0.0 0    # pairwise interaction
pair_coeff  * *                                             # between atoms

# pairwise interaction between z-wall and atoms
fix wall all wall/gran hooke/history 1e-3 NULL 1e-4 NULL 0 0 zplane 0.0 1e-04

fix vis all viscous 1e-5                                    # viscous damping force

fix grav all gravity 9.81 vector 0.0 0.0 -1.0

fix nve all nve/limit 1e-7                                  # NVE integration with
                                                            # maximum distance limit


#---------------------------Post-Physical Processes---------------------------#

fix coeff_sub all nufeb/diffusion_coeff sub ratio 0.8       # defining diffusion coeff in the biofilm
fix coeff_metab1 all nufeb/diffusion_coeff metab1 ratio 0.8    # region is 80% of the value in liquid
fix coeff_metab2 all nufeb/diffusion_coeff metab2 ratio 0.8

#---------------------------Chemical Processes---------------------------------#

fix diff_sub all nufeb/diffusion_reaction sub 1e-9        # diffusion reaction for updating
fix diff_metab1 all nufeb/diffusion_reaction metab1 4e-9     # distribusion of substrate concentration
fix diff_metab2 all nufeb/diffusion_reaction metab2 4e-9

#--------------------------Computations and Outputs----------------------------#

variable mass equal "mass(all)"                             # total mass
variable ncross1 equal "count(CROSS1)"                      # total # of CROSS1
variable ncross2 equal "count(CROSS2)"                      # total # of CROSS2
variable ncheater equal "count(CHEATER)"
variable ndead equal "count(dead)"
variable neps equal "count(EPS)"

shell mkdir vtk_EPS_ch                                            # dump vtk files to /vtk folder
dump du1 all vtk 10 vtk_EPS_ch/dump*.vtu id type diameter         # require build NUFEB with vtk option
dump du2 all grid/vtk 10 vtk_EPS_ch/dump_%_*.vti con rea den gro

#dump du3 all movie 10 movie.avi type diameter view 80 60    # dump video
#dump_modify du3 acolor 1 blue acolor 2 lightgrey framerate 10


                                                            # dump hdf5 files to /hdf5 folder
#shell mkdir hdf5                                           # require build NUFEB with hdf5 option
#dump du3 all nufeb/hdf5 10 dump.h5 id type x y z vx vy vz fx fy fz radius conc reac

thermo_style custom step cpu atoms v_ncross1 v_ncross2 v_ncheater v_ndead v_neps v_mass     # screen and log outputs
thermo 1
thermo_modify   lost ignore

#-----------------------------------Run----------------------------------------#

# issue run command, define timesteps for physical (pairdt) and chemical (diffdt) processes
run_style nufeb diffdt 1e-4 difftol 1e-6 pairdt 1e-2 pairtol 1 pairmax 1000 diffmax 5000

timestep 12000                                               # define biological timesteps (1000s)

run 320                                                    # growing biofilm for 900x1000s
Generated 0 of 6 mixed pair_coeff terms from geometric mixing rule
Last active /omp style is pair_style gran/hooke/history/omp
Neighbor list info ...
  update every 1 steps, delay 10 steps, check yes
  max neighbors/atom: 2000, page size: 100000
  master list distance cutoff = 2.49e-06
  ghost atom cutoff = 2.49e-06
  binsize = 1.245e-06, bins = 49 49 49
  1 neighbor lists, perpetual/occasional/extra = 1 0 0
  (1) pair gran/hooke/history/omp, perpetual
      attributes: half, newton off, size, history, omp
      pair build: half/size/bin/newtoff/omp
      stencil: full/bin/3d
      bin: standard
Per MPI rank memory allocation (min/avg/max) = 11.02 | 11.02 | 11.02 Mbytes
   Step          CPU          Atoms      v_ncross1      v_ncross2      v_ncheater      v_ndead         v_neps         v_mass    
         0   0                    150   50             50             50             0              0              1.3295396e-13
         1   0.38326618           432   90             85             86             0              171            1.7279036e-13
         2   0.76621182           797   119            126            138            0              414            1.9631931e-13
         3   1.0837312           1122   128            146            181            0              667            2.1574961e-13
         4   1.3823958           1435   135            153            205            0              942            2.3389601e-13
         5   1.5940234           1746   139            161            222            0              1224           2.5134404e-13
         6   1.775671            2067   144            167            243            0              1513           2.6875256e-13
         7   1.9376198           2410   149            181            260            0              1820           2.8567506e-13
         8   2.0922283           2755   158            187            277            0              2133           3.0233834e-13
         9   2.2532069           3103   165            196            292            0              2450           3.1879336e-13
        10   2.409569            3459   171            201            317            0              2770           3.3492782e-13
        11   2.5377168           3833   174            211            339            0              3109           3.5063465e-13
        12   2.6496039           4212   177            216            365            0              3454           3.6601642e-13
        13   2.7665161           4600   185            223            374            0              3818           3.8106544e-13
        14   2.9023603           5001   190            229            403            0              4179           3.957816e-13 
        15   3.001611            5396   192            239            424            0              4541           4.0984282e-13
        16   3.1138125           5787   197            245            443            0              4902           4.2320775e-13
        17   3.2165869           6163   200            247            452            0              5264           4.364088e-13 
        18   3.3062113           6554   204            249            466            0              5635           4.4929567e-13
        19   3.3967408           6940   214            253            480            0              5993           4.6161471e-13
        20   13.232051           7344   218            256            497            0              6373           4.7362846e-13
        21   13.348803           7746   224            263            519            0              6740           4.851471e-13 
        22   13.470113           8151   230            265            529            0              7127           4.9610322e-13
        23   13.563248           8546   235            270            542            0              7499           5.0655126e-13
        24   13.647436           8944   236            275            554            0              7879           5.1677203e-13
        25   13.728163           9352   240            278            569            0              8265           5.2654438e-13
        26   13.808938           9741   243            281            579            0              8638           5.3603688e-13
        27   13.921017          10163   248            288            597            0              9030           5.4533168e-13
        28   14.008928          10554   251            290            610            0              9403           5.5423208e-13
        29   14.099438          10968   254            294            623            0              9797           5.6300768e-13
        30   14.235447          11361   260            298            634            0              10169          5.7143778e-13
        31   14.339324          11770   261            301            648            0              10560          5.7974593e-13
        32   14.464406          12172   267            307            656            0              10942          5.8726205e-13
        33   14.589964          12589   271            311            666            0              11341          5.9496366e-13
        34   14.754788          12978   273            314            677            0              11714          6.024338e-13 
        35   14.875893          13402   278            318            690            0              12116          6.0971505e-13
        36   15.006809          13793   279            320            699            0              12495          6.1679212e-13
        37   15.22619           14220   279            324            709            0              12908          6.2378047e-13
        38   15.449254          14611   280            327            718            0              13286          6.3051167e-13
        39   15.834877          15018   282            329            721            0              13686          6.3727922e-13
        40   16.246722          15403   283            329            731            0              14060          6.4352351e-13
        41   16.728098          15817   286            332            743            0              14456          6.4942047e-13
        42   17.195921          16211   290            333            751            0              14837          6.5507668e-13
        43   18.052558          16612   292            333            754            0              15233          6.610779e-13 
        44   18.913489          16991   292            337            758            0              15604          6.6631324e-13
        45   19.794643          17389   293            337            765            0              15994          6.7127358e-13
        46   20.691577          17815   298            339            774            0              16404          6.7591146e-13
        47   21.633641          18198   302            340            778            0              16778          6.8063875e-13
        48   22.567374          18619   307            344            783            0              17185          6.8511123e-13
        49   23.507242          19025   312            344            793            0              17576          6.8926261e-13
        50   24.551328          19453   314            346            799            0              17994          6.9353554e-13
        51   25.553478          19865   314            346            808            0              18397          6.9784097e-13
        52   26.588957          20269   316            349            816            0              18788          7.0233998e-13
        53   27.647869          20683   319            351            827            0              19186          7.0694523e-13
        54   28.735682          21110   320            352            838            0              19600          7.1195726e-13
        55   29.840612          21530   325            355            845            0              20005          7.1689518e-13
        56   30.953061          21946   328            357            861            0              20400          7.2201735e-13
        57   32.105649          22371   329            361            867            1              20813          7.2718228e-13
        58   33.273818          22785   333            361            881            1              21209          7.3272006e-13
        59   34.443506          23239   333            362            899            1              21644          7.3834017e-13
        60   35.745826          23607   336            364            906            2              21999          7.4349795e-13
        61   36.964444          24064   338            364            918            3              22441          7.4943582e-13
        62   38.214509          24460   339            364            939            3              22815          7.5457735e-13
        63   39.487944          24921   344            368            948            3              23258          7.6022274e-13
        64   40.7757            25312   345            369            961            4              23633          7.6555899e-13
        65   42.097736          25754   345            371            975            9              24054          7.71121e-13  
        66   43.441716          26174   347            372            986            9              24460          7.7673865e-13
        67   44.803794          26601   348            376            1001           11             24865          7.8221712e-13
        68   46.204282          27028   349            377            1018           12             25272          7.8779021e-13
        69   47.620907          27436   351            378            1026           14             25667          7.9320253e-13
        70   49.178124          27881   354            380            1040           15             26092          7.9885173e-13
        71   50.70657           28293   354            380            1056           20             26483          8.0465218e-13
        72   52.272076          28738   355            383            1066           24             26910          8.107989e-13 
        73   53.941236          29140   356            384            1070           34             27296          8.1678755e-13
        74   55.627557          29581   358            386            1077           42             27718          8.2414954e-13
        75   57.320485          30012   358            388            1095           47             28124          8.320625e-13 
        76   59.132246          30436   360            389            1108           51             28528          8.4017029e-13
        77   60.940291          30868   360            390            1124           63             28931          8.4947388e-13
        78   62.826624          31302   360            390            1145           70             29337          8.5947242e-13
        79   64.724452          31715   362            392            1158           83             29720          8.7016199e-13
        80   66.682638          32151   363            395            1192           89             30112          8.8143061e-13
        81   68.630914          32578   363            397            1211           94             30513          8.9272924e-13
        82   70.56433           33006   364            399            1237           103            30903          9.0457004e-13
        83   72.525894          33431   365            402            1261           111            31292          9.1640953e-13
        84   74.580608          33881   365            403            1306           116            31691          9.2838429e-13
        85   76.656759          34295   365            403            1323           125            32079          9.4058448e-13
        86   78.75106           34702   366            403            1350           135            32448          9.5290441e-13
        87   80.891674          35146   366            403            1383           139            32855          9.6552413e-13
        88   83.141605          35575   367            404            1428           143            33233          9.7835919e-13
        89   85.409029          36018   367            404            1468           152            33627          9.91389e-13  
        90   87.853967          36422   367            405            1497           164            33989          1.004501e-12 
        91   90.25766           36855   368            405            1544           170            34368          1.0186005e-12
        92   92.68755           37263   369            405            1577           178            34734          1.0335084e-12
        93   95.132185          37692   369            406            1631           179            35107          1.0488704e-12
        94   97.603668          38113   370            406            1677           180            35480          1.0643526e-12
        95   100.10026          38524   370            407            1717           187            35843          1.0797673e-12
        96   102.6328           38950   370            407            1768           191            36214          1.0954111e-12
        97   105.17058          39357   371            407            1802           198            36579          1.1109507e-12
        98   107.76726          39764   372            407            1846           203            36936          1.1262203e-12
        99   110.42152          40165   372            407            1887           209            37290          1.1411741e-12
       100   113.19861          40600   372            407            1947           218            37656          1.1562721e-12
       101   115.99229          41008   373            407            1983           229            38016          1.171144e-12 
       102   118.83103          41414   374            407            2030           237            38366          1.1866875e-12
       103   121.72994          41833   375            408            2077           253            38720          1.2026073e-12
       104   124.70137          42242   376            410            2126           263            39067          1.2191408e-12
       105   127.70864          42652   376            411            2171           274            39420          1.2363722e-12
       106   130.80177          43051   377            411            2227           279            39757          1.2539643e-12
       107   133.94895          43480   377            411            2285           292            40115          1.2725318e-12
       108   137.14622          43873   378            411            2354           297            40433          1.2919315e-12
       109   140.34136          44305   379            411            2410           306            40799          1.3121805e-12
       110   143.77142          44698   379            411            2476           315            41117          1.3322334e-12
       111   147.05483          45121   380            411            2546           317            41467          1.3530025e-12
       112   150.41138          45508   381            411            2629           323            41764          1.3736102e-12
       113   153.83296          45956   381            411            2695           335            42134          1.3949274e-12
       114   157.32265          46319   381            411            2757           345            42425          1.4160356e-12
       115   160.84568          46752   381            411            2830           351            42779          1.4379367e-12
       116   164.4578           47124   382            411            2906           358            43067          1.4593207e-12
       117   168.17989          47558   383            411            2974           377            43413          1.4812836e-12
       118   171.95375          47947   383            411            3051           385            43717          1.5037851e-12
       119   175.80145          48363   383            413            3125           393            44049          1.5266254e-12
       120   179.82493          48751   383            413            3214           403            44338          1.5500732e-12
       121   183.80574          49173   383            413            3293           412            44672          1.574098e-12 
       122   187.82605          49567   384            413            3369           433            44968          1.5987553e-12
       123   191.92562          49950   384            414            3457           440            45255          1.6230092e-12
       124   196.04494          50362   385            416            3552           455            45554          1.6472588e-12
       125   200.26588          50756   386            416            3632           470            45852          1.6711915e-12
       126   204.52802          51153   386            417            3717           480            46153          1.6954636e-12
       127   208.85195          51552   386            418            3815           498            46435          1.718987e-12 
       128   213.2825           51957   387            420            3901           518            46731          1.7421786e-12
       129   217.78214          52353   387            420            3972           534            47040          1.76521e-12  
       130   222.51593          52736   388            421            4046           560            47321          1.7884861e-12
       131   227.16869          53106   389            424            4122           579            47592          1.8119596e-12
       132   231.88761          53529   390            424            4198           600            47917          1.8358839e-12
       133   236.66522          53908   390            424            4286           618            48190          1.8599293e-12
       134   241.5212           54289   390            429            4366           643            48461          1.8844807e-12
       135   246.42941          54715   390            429            4464           668            48764          1.9095921e-12
       136   251.40916          55097   392            429            4530           694            49052          1.9347909e-12
       137   256.47838          55482   392            430            4622           710            49328          1.9599002e-12
       138   261.52951          55874   392            430            4715           732            49605          1.9846996e-12
       139   266.70382          56287   392            434            4787           766            49908          2.008877e-12 
       140   272.13869          56690   392            435            4866           790            50207          2.0330876e-12
       141   277.50671          57096   392            435            4973           815            50481          2.0575461e-12
       142   282.99444          57515   392            437            5082           832            50772          2.0823674e-12
       143   288.46955          57930   392            438            5162           864            51074          2.107735e-12 
       144   294.01226          58337   392            441            5255           888            51361          2.134096e-12 
       145   299.6243           58768   392            442            5361           911            51662          2.1612844e-12
       146   305.31262          59173   393            442            5445           939            51954          2.1889025e-12
       147   311.07708          59574   393            442            5538           964            52237          2.2171695e-12
       148   316.92415          59996   393            442            5627           995            52539          2.2453752e-12
       149   322.84776          60435   394            443            5741           1022           52835          2.2734946e-12
       150   329.03874          60863   394            443            5848           1042           53136          2.3014055e-12
       151   335.18724          61293   395            443            5948           1082           53425          2.329795e-12 
       152   341.46261          61703   395            443            6042           1119           53704          2.3587206e-12
       153   347.77575          62159   395            444            6132           1173           54015          2.3892403e-12
       154   354.17275          62589   395            443            6244           1202           54305          2.4209884e-12
       155   360.68342          63021   395            442            6347           1252           54585          2.4538667e-12
       156   367.3116           63475   395            443            6465           1287           54885          2.4883462e-12
       157   374.03426          63908   395            443            6584           1336           55150          2.5236114e-12
       158   380.85717          64381   396            443            6697           1387           55458          2.5597171e-12
       159   387.79445          64831   396            444            6785           1451           55755          2.5958485e-12
       160   394.97285          65270   396            444            6890           1507           56033          2.6322638e-12
       161   402.11108          65752   396            443            7011           1565           56337          2.6686704e-12
       162   409.39429          66222   396            442            7122           1637           56625          2.7060297e-12
       163   416.72804          66664   396            441            7231           1691           56905          2.7456225e-12
       164   424.18323          67155   396            441            7371           1742           57205          2.7860492e-12
       165   431.77586          67651   397            441            7509           1801           57503          2.8293598e-12
       166   439.45759          68105   397            440            7644           1849           57775          2.874426e-12 
       167   447.22925          68596   397            439            7769           1930           58061          2.9216479e-12
       168   455.12468          69122   397            439            7945           1983           58358          2.9705253e-12
       169   463.16477          69598   398            439            8084           2037           58640          3.0210422e-12
       170   471.48852          70118   398            439            8249           2098           58934          3.0726692e-12
       171   479.73397          70628   399            438            8431           2154           59206          3.1253637e-12
       172   488.09712          71173   399            438            8611           2200           59525          3.1802837e-12
       173   496.55461          71656   399            437            8782           2258           59780          3.2383246e-12
       174   505.1345           72194   399            436            8987           2314           60058          3.2988862e-12
       175   513.81187          72737   399            434            9175           2377           60352          3.3641168e-12
       176   522.59174          73291   398            434            9391           2433           60635          3.4313755e-12
       177   531.49974          73886   398            434            9609           2507           60938          3.5031147e-12
       178   540.55979          74462   398            433            9847           2570           61214          3.5771103e-12
       179   549.75203          75045   397            432            10072          2649           61495          3.6553465e-12
       180   559.25501          75670   396            430            10330          2724           61790          3.7369069e-12
       181   568.72628          76279   395            428            10580          2799           62077          3.8226034e-12
       182   578.39098          76907   395            427            10860          2884           62341          3.9159064e-12
       183   588.19917          77582   393            427            11177          2939           62646          4.0172142e-12
       184   598.18634          78238   392            427            11493          3008           62918          4.1271558e-12
       185   608.36634          78938   391            427            11843          3081           63196          4.2469387e-12
       186   618.75064          79655   391            427            12195          3159           63483          4.3773857e-12
       187   629.34566          80437   391            426            12611          3231           63778          4.5112933e-12
       188   640.10178          81182   391            425            13012          3292           64062          4.6508219e-12
       189   651.07188          81975   390            424            13468          3349           64344          4.7941942e-12
       190   662.47364          82761   390            424            13927          3401           64619          4.9349051e-12
       191   673.81531          83505   390            423            14305          3474           64913          5.0781636e-12
       192   685.3395           84317   390            422            14770          3538           65197          5.2195762e-12
       193   696.93707          85069   387            421            15177          3616           65468          5.3655731e-12
       194   708.66436          85853   387            421            15607          3683           65755          5.5080218e-12
       195   720.48214          86677   386            420            16076          3758           66037          5.6574869e-12
       196   732.39751          87497   384            420            16534          3848           66311          5.8126174e-12
       197   744.39288          88343   382            419            17011          3938           66593          5.9743656e-12
       198   756.46571          89210   382            418            17514          4022           66874          6.1274324e-12
       199   768.57261          90048   382            416            18010          4098           67142          6.2850184e-12
       200   780.92607          90837   382            416            18452          4200           67387          6.4454935e-12
       201   793.13135          91727   382            416            18959          4300           67670          6.619199e-12 
       202   805.4635           92653   382            415            19547          4384           67925          6.7829757e-12
       203   817.80267          93521   382            412            20058          4495           68174          6.9611574e-12
       204   830.22005          94481   380            411            20657          4600           68433          7.1553379e-12
       205   842.69729          95360   378            410            21200          4706           68666          7.3317247e-12
       206   855.22136          96275   377            409            21806          4797           68886          7.5191138e-12
       207   867.79461          97230   376            407            22407          4911           69129          7.703485e-12 
       208   880.43656          98209   376            404            23032          5033           69364          7.8952139e-12
       209   893.1401           99104   373            402            23610          5154           69565          8.0979508e-12
       210   906.13119         100065   370            402            24227          5310           69756          8.3021451e-12
       211   918.92235         101017   370            397            24834          5452           69964          8.4956837e-12
       212   931.72619         102048   368            394            25523          5610           70153          8.7212329e-12
       213   944.60377         102970   366            390            26129          5756           70329          8.921072e-12 
       214   957.52176         103956   364            385            26830          5887           70490          9.1176406e-12
       215   970.48086         104877   359            384            27456          6025           70653          9.3122248e-12
       216   983.50088         105878   353            382            28100          6215           70828          9.5341573e-12
       217   996.56725         106788   347            376            28703          6388           70974          9.7284897e-12
       218   1009.659          107790   344            372            29393          6593           71088          9.9508744e-12
       219   1022.7934         108680   339            370            29953          6812           71206          1.0138182e-11
       220   1036.2486         109665   337            363            30587          7059           71319          1.0347196e-11
       221   1049.5309         110570   332            360            31132          7315           71431          1.0540372e-11
       222   1062.8416         111502   328            355            31708          7569           71542          1.0706549e-11
       223   1076.2259         112403   326            352            32165          7917           71643          1.0887274e-11
       224   1089.663          113257   325            348            32650          8213           71721          1.1046988e-11
       225   1103.1651         114076   320            337            33073          8545           71801          1.118748e-11 
       226   1116.7004         114832   320            328            33446          8878           71860          1.1317371e-11
       227   1130.2595         115554   318            321            33774          9190           71951          1.1432876e-11
       228   1143.8582         116402   310            317            34259          9500           72016          1.1568271e-11
       229   1157.5321         117065   302            311            34532          9833           72087          1.1648206e-11
       230   1171.4904         117680   298            300            34824          10120          72138          1.1733107e-11
       231   1185.2465         118380   290            295            35219          10382          72194          1.1811166e-11
       232   1199.0534         119035   281            281            35607          10625          72241          1.1889865e-11
       233   1212.8916         119669   270            272            35991          10841          72295          1.1951317e-11
       234   1226.7898         120271   262            264            36368          11041          72336          1.2014108e-11
       235   1240.7089         120835   247            256            36696          11254          72382          1.2067285e-11
       236   1254.6955         121419   241            248            37078          11437          72415          1.2104355e-11
       237   1268.6792         121986   232            233            37447          11617          72457          1.2132192e-11
       238   1282.704          122569   226            224            37818          11810          72491          1.2172677e-11
       239   1296.7517         123021   223            219            38059          11989          72531          1.2181089e-11
       240   1311.1444         123611   215            215            38412          12198          72571          1.2212149e-11
       241   1325.356          124113   206            211            38702          12393          72601          1.2226255e-11
       242   1339.6471         124571   202            204            38897          12638          72630          1.2243343e-11
       243   1353.9738         125052   194            195            39088          12914          72661          1.2244027e-11
       244   1368.3482         125574   184            184            39290          13218          72698          1.2249558e-11
       245   1382.752          126033   179            177            39419          13522          72736          1.2262944e-11
       246   1397.1864         126513   174            174            39537          13855          72773          1.2253443e-11
       247   1411.6707         126958   169            167            39611          14203          72808          1.2241643e-11
       248   1426.1797         127372   163            163            39652          14563          72831          1.2246181e-11
       249   1440.7382         127821   154            157            39706          14944          72860          1.224199e-11 
       250   1455.6429         128324   147            151            39805          15331          72890          1.2257411e-11
       251   1470.2779         128798   139            142            39892          15711          72914          1.2259685e-11
       252   1484.9428         129235   135            136            39937          16072          72955          1.2235911e-11
       253   1499.6894         129637   130            136            39952          16423          72996          1.2218018e-11
       254   1514.4713         129984   123            131            39923          16769          73038          1.2207627e-11
       255   1529.3336         130472   119            127            40037          17113          73076          1.222128e-11 
       256   1544.2501         130907   115            118            40105          17460          73109          1.2205949e-11
       257   1559.1984         131327   108            111            40181          17795          73132          1.2202582e-11
       258   1574.198          131751   103            108            40248          18127          73165          1.2203833e-11
       259   1589.1961         132157   96             101            40288          18465          73207          1.2193606e-11
       260   1604.5884         132547   90             97             40324          18792          73244          1.2191443e-11
       261   1619.7358         132973   82             89             40392          19129          73281          1.2193455e-11
       262   1634.9474         133312   82             84             40385          19446          73315          1.215919e-11 
       263   1650.1932         133768   80             78             40540          19726          73344          1.2166626e-11
       264   1665.5005         134151   78             75             40596          20024          73378          1.2155858e-11
       265   1680.8527         134582   72             72             40706          20315          73417          1.2148469e-11
       266   1696.276          134942   71             70             40734          20611          73456          1.2145402e-11
       267   1711.7319         135305   70             66             40749          20937          73483          1.2142098e-11
       268   1727.2372         135737   68             64             40818          21270          73517          1.2147228e-11
       269   1742.7876         136159   63             59             40860          21617          73560          1.2143837e-11
       270   1758.719          136527   62             54             40863          21957          73591          1.2127628e-11
       271   1774.3749         136855   59             53             40834          22292          73617          1.210849e-11 
       272   1790.0719         137243   56             50             40821          22659          73657          1.2112537e-11
       273   1805.8199         137599   54             48             40777          23031          73689          1.2105005e-11
       274   1821.5953         138064   51             42             40838          23414          73719          1.2116075e-11
       275   1837.3824         138403   48             41             40750          23814          73750          1.21084e-11  
       276   1853.2497         138784   47             41             40700          24213          73783          1.210028e-11 
       277   1869.134          139111   45             41             40597          24616          73812          1.2077755e-11
       278   1885.0489         139428   41             40             40460          25044          73843          1.2096244e-11
       279   1901.0076         139862   41             39             40431          25479          73872          1.2120025e-11
       280   1917.4003         140261   39             34             40354          25932          73902          1.2109883e-11
       281   1933.5391         140627   38             33             40246          26384          73926          1.2117223e-11
       282   1949.7108         140955   38             31             40079          26850          73957          1.2101002e-11
       283   1965.9611         141321   37             31             39969          27300          73984          1.2108001e-11
       284   1982.279          141616   37             31             39754          27779          74015          1.2109792e-11
       285   1998.6276         142062   37             31             39703          28248          74043          1.2118886e-11
       286   2015.0018         142434   36             30             39542          28753          74073          1.2131307e-11
       287   2031.419          142830   36             29             39443          29227          74095          1.2140644e-11
       288   2047.8788         143186   36             29             39242          29748          74131          1.2149024e-11
       289   2064.3996         143520   36             27             39061          30243          74153          1.2166062e-11
       290   2081.289          143820   35             27             38878          30692          74188          1.2153286e-11
       291   2097.8155         144151   35             27             38664          31211          74214          1.2142508e-11
       292   2114.3938         144585   35             27             38598          31679          74246          1.2167457e-11
       293   2131.0171         144892   35             26             38406          32152          74273          1.2168329e-11
       294   2147.7002         145248   35             24             38242          32645          74302          1.2182221e-11
       295   2164.4326         145538   35             24             38070          33083          74326          1.217479e-11 
       296   2181.2223         145909   34             24             37965          33530          74356          1.2175764e-11
       297   2198.0278         146263   34             23             37846          33977          74383          1.2186412e-11
       298   2214.9138         146614   34             23             37721          34424          74412          1.2199674e-11
       299   2231.7741         146914   34             23             37574          34844          74439          1.2207147e-11
       300   2249.0503         147248   33             23             37458          35266          74468          1.222825e-11 
       301   2266.0546         147621   33             23             37319          35751          74495          1.2225689e-11
       302   2283.1957         148015   32             23             37238          36198          74524          1.2240469e-11
       303   2300.3628         148396   31             23             37171          36622          74549          1.22664e-11  
       304   2317.5387         148647   31             22             36970          37046          74578          1.2263464e-11
       305   2334.7252         148956   31             22             36871          37429          74603          1.2253822e-11
       306   2351.85           149311   31             22             36792          37833          74633          1.2271182e-11
       307   2368.9782         149641   31             22             36689          38241          74658          1.2290684e-11
       308   2386.146          150041   31             22             36673          38629          74686          1.2304856e-11
       309   2403.3449         150362   31             22             36617          38981          74711          1.2300701e-11
       310   2420.8534         150711   31             22             36609          39308          74741          1.2333132e-11
       311   2438.108          151031   31             22             36533          39680          74765          1.2352023e-11
       312   2455.4138         151379   31             22             36469          40063          74794          1.2352262e-11
       313   2472.7447         151717   31             22             36401          40443          74820          1.2365848e-11
       314   2490.1317         152032   31             22             36346          40784          74849          1.236991e-11 
       315   2507.6891         152430   30             22             36388          41119          74871          1.2397639e-11
       316   2525.2983         152699   30             22             36280          41466          74901          1.237303e-11 
       317   2542.7592         153034   30             22             36241          41814          74927          1.2388956e-11
       318   2560.2299         153274   30             22             36127          42139          74956          1.2390179e-11
       319   2577.8059         153680   30             22             36156          42490          74982          1.2401064e-11
       320   2595.7712         154046   30             22             36165          42818          75011          1.2423235e-11
Loop time of 2595.77 on 16 procs for 320 steps with 154046 atoms

98.3% CPU use with 16 MPI tasks x 1 OpenMP threads

MPI task timing breakdown:
Section |  min time  |  avg time  |  max time  |%varavg| %total
---------------------------------------------------------------
Pair    | 582.39     | 663.55     | 879.01     | 287.7 | 25.56
Neigh   | 519.7      | 608.3      | 984.25     | 460.4 | 23.43
Comm    | 205.34     | 239.12     | 279.67     | 157.3 |  9.21
Output  | 15.608     | 15.608     | 15.608     |   0.0 |  0.60
Modify  | 443.5      | 1056.7     | 1243.9     | 614.8 | 40.71
Other   |            | 12.46      |            |       |  0.48

Nlocal:        9627.88 ave       15811 max        8319 min
Histogram: 9 3 1 1 1 0 0 0 0 1
Nghost:        7355.25 ave        9870 max        6495 min
Histogram: 8 1 2 2 0 0 2 0 0 1
Neighs:        94898.9 ave      110732 max       85460 min
Histogram: 1 2 4 4 1 1 1 1 0 1

Total # of neighbors = 1518383
Ave neighs/atom = 9.8566857
Neighbor list builds = 28157
Dangerous builds = 27837

Total wall time: 0:43:40
