LAMMPS (23 Jun 2022 - Update 4)
  using 1 OpenMP thread(s) per MPI task
package omp 0
using multi-threaded neighbor list subroutines
#-----------------------------------------------------------------------------#
#                NUFEB Simulation: Heterotrophic Biofilm Growth               #
#-----------------------------------------------------------------------------#


#-----------------------------System Settings---------------------------------#

units si                                    # using si units (m, s, kg)
atom_style      coccus                      # using nufeb coccus atom style
atom_modify     map array sort 10 0         # map array - find atoms using indices
		                            # sort every 10

boundary        pp pp ff                    # periodic boundaries in x and y
                                            # fixed boundary in z

newton          off                         # forces between local and ghost
                                            # atoms are computed in each
					     # processor without communication

processors      * * 1                       # processor grid

comm_modify     vel yes                     # communicate velocities for ghost atoms

read_data       atom_ch.in	             # read atom.in file which defines domain size
Reading data file ...
  orthogonal box = (0 0 0) to (6e-05 6e-05 6e-05)
  4 by 4 by 1 MPI processor grid
  reading atoms ...
  150 atoms
  read_data CPU = 0.015 seconds
                                            # and initial atoms


#--------------------Microbes and Functional Groups-------------------------#

group           CROSS1   type 1               # assign type 1,2 atoms to CROSS group
50 atoms in group CROSS1
group           CROSS2   type 2
50 atoms in group CROSS2
group		CHEATER  type 3
50 atoms in group CHEATER
group           dead     type 4
0 atoms in group dead
group		EPS	 type 5
0 atoms in group EPS

neighbor        5e-7 bin                   # setting neighbour skin distance and style

neigh_modify    check yes                  # rebuild neighbour list if any atom
                                           # had moved more than half the skin distance


#--------------------------Mesh Grid and Substrates--------------------------#

# defining grid sytle, substrate names, and grid size
grid_style      nufeb/chemostat 3 sub metab1 metab2 5e-6

# set diffusion boundary conditions and initial concentrations (liquid:kg/m3)
grid_modify     set sub      pp pp nd  1.8e-4
No /omp style for force computation currently active
grid_modify     set metab1   pp pp nd  1e-4
No /omp style for force computation currently active
grid_modify     set metab2   pp pp nd  1e-4
No /omp style for force computation currently active


#--------------------------Biological Processes-------------------------------#

# heterotrophs growth
fix growth_cross1 CROSS1 nufeb/growth/cross1 sub 3.5e-5 metab2 4e-3 metab1 growth 0.009 yield 0.6 decay 2.6e-6 metab1_exp 20 epsyield 0.12 epsdens 30

fix growth_cross2 CROSS2 nufeb/growth/cross2 sub 3.5e-5 metab1 4e-3 metab2 growth 0.009 yield 0.6 decay 2.6e-6 metab2_exp 20 epsyield 0.12 epsdens 30

fix growth_cheater CHEATER nufeb/growth/cheater sub 3.5e-5 metab1 1e-3 metab2 1e-3 growth 0.009 yield 0.6 decay 2.6e-6

# heterotrophs division, division diameter: 1.36e-6
fix div1 CROSS1 nufeb/division/coccus 1.36e-6 2312
fix div2 CROSS2 nufeb/division/coccus 1.36e-6 8942
fix div3 CHEATER nufeb/division/coccus 1.36e-6 19990

fix death1 CROSS1 nufeb/death/diameter dead 5.43e-7
fix death2 CROSS2 nufeb/death/diameter dead 5.43e-7
fix death3 CHEATER nufeb/death/diameter dead 5.43e-7

# EPS secretion from heterotrophs
fix eps1 CROSS1 nufeb/eps_secretion 5 EPS 1.1 30 35456
fix eps2 CROSS2 nufeb/eps_secretion 5 EPS 1.1 30 55340

#---------------------------Physical Processes--------------------------------#

pair_style  gran/hooke/history 1e-4 NULL 1e-5 NULL 0.0 0    # pairwise interaction
pair_coeff  * *                                             # between atoms

# pairwise interaction between z-wall and atoms
fix wall all wall/gran hooke/history 1e-3 NULL 1e-4 NULL 0 0 zplane 0.0 1e-04

fix vis all viscous 1e-5                                    # viscous damping force

fix grav all gravity 9.81 vector 0.0 0.0 -1.0

fix nve all nve/limit 1e-7                                  # NVE integration with
                                                            # maximum distance limit


#---------------------------Post-Physical Processes---------------------------#

fix coeff_sub all nufeb/diffusion_coeff sub ratio 0.8       # defining diffusion coeff in the biofilm
fix coeff_metab1 all nufeb/diffusion_coeff metab1 ratio 0.8    # region is 80% of the value in liquid
fix coeff_metab2 all nufeb/diffusion_coeff metab2 ratio 0.8

#---------------------------Chemical Processes---------------------------------#

fix diff_sub all nufeb/diffusion_reaction sub 1e-9        # diffusion reaction for updating
fix diff_metab1 all nufeb/diffusion_reaction metab1 4e-9     # distribusion of substrate concentration
fix diff_metab2 all nufeb/diffusion_reaction metab2 4e-9

#--------------------------Computations and Outputs----------------------------#

variable mass equal "mass(all)"                             # total mass
variable ncross1 equal "count(CROSS1)"                      # total # of CROSS1
variable ncross2 equal "count(CROSS2)"                      # total # of CROSS2
variable ncheater equal "count(CHEATER)"
variable ndead equal "count(dead)"
variable neps equal "count(EPS)"

shell mkdir vtk_EPS_ch                                            # dump vtk files to /vtk folder
dump du1 all vtk 10 vtk_EPS_ch/dump*.vtu id type diameter         # require build NUFEB with vtk option
dump du2 all grid/vtk 10 vtk_EPS_ch/dump_%_*.vti con rea den gro

#dump du3 all movie 10 movie.avi type diameter view 80 60    # dump video
#dump_modify du3 acolor 1 blue acolor 2 lightgrey framerate 10


                                                            # dump hdf5 files to /hdf5 folder
#shell mkdir hdf5                                           # require build NUFEB with hdf5 option
#dump du3 all nufeb/hdf5 10 dump.h5 id type x y z vx vy vz fx fy fz radius conc reac

thermo_style custom step cpu atoms v_ncross1 v_ncross2 v_ncheater v_ndead v_neps v_mass     # screen and log outputs
thermo 1
thermo_modify   lost ignore

#-----------------------------------Run----------------------------------------#

# issue run command, define timesteps for physical (pairdt) and chemical (diffdt) processes
run_style nufeb diffdt 1e-4 difftol 1e-6 pairdt 1e-2 pairtol 1 pairmax 1000 diffmax 5000

timestep 12000                                               # define biological timesteps (1000s)

run 320                                                    # growing biofilm for 900x1000s
Generated 0 of 6 mixed pair_coeff terms from geometric mixing rule
Last active /omp style is pair_style gran/hooke/history/omp
Neighbor list info ...
  update every 1 steps, delay 10 steps, check yes
  max neighbors/atom: 2000, page size: 100000
  master list distance cutoff = 2.49e-06
  ghost atom cutoff = 2.49e-06
  binsize = 1.245e-06, bins = 49 49 49
  1 neighbor lists, perpetual/occasional/extra = 1 0 0
  (1) pair gran/hooke/history/omp, perpetual
      attributes: half, newton off, size, history, omp
      pair build: half/size/bin/newtoff/omp
      stencil: full/bin/3d
      bin: standard
Per MPI rank memory allocation (min/avg/max) = 11.02 | 11.02 | 11.02 Mbytes
   Step          CPU          Atoms      v_ncross1      v_ncross2      v_ncheater      v_ndead         v_neps         v_mass    
         0   0                    150   50             50             50             0              0              1.3295396e-13
         1   0.38628819           432   90             85             86             0              171            1.7266899e-13
         2   0.77110318           799   119            127            137            0              416            1.9583485e-13
         3   1.1016978           1117   126            146            181            0              664            2.1523239e-13
         4   1.4172482           1429   137            149            202            0              941            2.3348872e-13
         5   1.6515696           1744   143            155            223            0              1223           2.5127715e-13
         6   1.8147625           2068   149            163            237            0              1519           2.6875722e-13
         7   1.9679987           2405   155            173            254            0              1823           2.8583926e-13
         8   2.1111048           2759   162            182            274            0              2141           3.0249054e-13
         9   2.2825515           3120   171            192            293            0              2464           3.1873667e-13
        10   5.0149677           3490   177            197            314            0              2802           3.3479244e-13
        11   5.1426467           3851   180            208            327            0              3136           3.5044226e-13
        12   5.2692044           4233   182            215            351            0              3485           3.6572979e-13
        13   5.3776069           4621   187            219            373            0              3842           3.8057058e-13
        14   5.5207533           4998   195            225            381            0              4197           3.9506015e-13
        15   5.6089624           5394   205            227            400            0              4562           4.0912403e-13
        16   5.7151633           5781   209            229            421            0              4922           4.2262983e-13
        17   5.8079462           6176   212            237            441            0              5286           4.3592573e-13
        18   5.897238            6580   219            238            458            0              5665           4.490464e-13 
        19   5.9982984           6967   222            244            470            0              6031           4.6165956e-13
        20   6.1108494           7353   226            245            486            0              6396           4.7401334e-13
        21   6.191509            7766   234            247            499            0              6786           4.8612183e-13
        22   6.3524391           8153   237            254            518            0              7144           4.9769744e-13
        23   6.4586797           8553   239            260            539            0              7515           5.09044e-13  
        24   6.5883518           8971   245            265            558            0              7903           5.204367e-13 
        25   6.6888885           9355   248            271            574            0              8262           5.3066093e-13
        26   6.7983827           9769   253            273            587            0              8656           5.4051201e-13
        27   6.8940658          10165   256            275            604            0              9030           5.498425e-13 
        28   6.980344           10560   258            279            609            0              9414           5.588537e-13 
        29   7.0637746          10970   260            286            622            0              9802           5.6773663e-13
        30   7.2009259          11356   263            291            637            0              10165          5.7616906e-13
        31   7.3217035          11775   269            296            643            0              10567          5.8418083e-13
        32   7.4735615          12156   273            298            653            0              10932          5.916875e-13 
        33   7.5775409          12547   277            300            656            0              11314          5.9883455e-13
        34   7.7402441          12945   278            303            665            0              11699          6.0573262e-13
        35   7.9165925          13359   285            307            674            0              12093          6.1250195e-13
        36   8.1127438          13753   288            307            682            0              12476          6.1899648e-13
        37   8.3234221          14166   289            310            692            0              12875          6.2548905e-13
        38   8.6033308          14551   292            311            699            0              13249          6.3120083e-13
        39   8.9730511          14956   293            315            709            0              13639          6.3695291e-13
        40   9.4503842          15385   297            318            716            0              14054          6.4249142e-13
        41   10.016305          15777   301            325            729            0              14422          6.4785189e-13
        42   10.506801          16192   301            327            739            0              14825          6.5361003e-13
        43   11.138644          16594   301            331            743            0              15219          6.5917869e-13
        44   12.038849          17005   308            332            750            0              15615          6.6449502e-13
        45   12.920346          17431   312            334            760            0              16025          6.6997563e-13
        46   13.819784          17819   313            334            766            0              16406          6.7525994e-13
        47   14.747176          18234   314            335            770            0              16815          6.8062192e-13
        48   15.69006           18639   318            337            780            0              17204          6.854536e-13 
        49   16.65378           19060   318            338            783            0              17621          6.9014271e-13
        50   17.720295          19459   321            341            787            0              18010          6.9410471e-13
        51   18.744357          19890   324            343            795            0              18428          6.9875336e-13
        52   19.764549          20280   325            344            802            0              18809          7.0291703e-13
        53   20.794759          20720   327            347            808            0              19238          7.0714704e-13
        54   21.864708          21119   330            349            814            0              19626          7.1114042e-13
        55   22.965522          21547   331            350            824            0              20042          7.1527408e-13
        56   24.092788          21960   335            350            828            0              20447          7.1898138e-13
        57   25.22617           22385   336            350            833            0              20866          7.2258112e-13
        58   26.389719          22772   338            350            837            0              21247          7.2609421e-13
        59   27.574611          23218   339            352            846            0              21681          7.3029697e-13
        60   28.825337          23609   341            352            854            0              22062          7.3397042e-13
        61   30.039958          24040   342            356            859            0              22483          7.3769964e-13
        62   31.26804           24447   345            357            866            0              22879          7.4110387e-13
        63   32.537445          24890   346            358            868            0              23318          7.4470562e-13
        64   33.825587          25280   346            360            877            0              23697          7.4804359e-13
        65   35.136353          25724   348            362            882            0              24132          7.5143355e-13
        66   36.482078          26116   348            362            883            1              24522          7.5442617e-13
        67   37.884795          26555   349            362            886            1              24957          7.5752005e-13
        68   39.302597          26954   352            364            891            1              25346          7.5980192e-13
        69   40.736187          27399   352            365            895            2              25785          7.6266405e-13
        70   42.274541          27798   353            365            901            3              26176          7.6496355e-13
        71   43.765695          28237   354            365            903            6              26609          7.6773471e-13
        72   45.301878          28630   355            368            903            12             26992          7.7009287e-13
        73   46.890298          29081   357            369            902            17             27436          7.7298923e-13
        74   48.500349          29478   360            370            907            20             27821          7.7613358e-13
        75   50.159916          29929   362            371            911            24             28261          7.8000348e-13
        76   51.835945          30332   364            371            917            26             28654          7.8413832e-13
        77   53.559022          30769   365            372            924            32             29076          7.8841976e-13
        78   55.32676           31195   368            375            926            39             29487          7.9319444e-13
        79   57.16041           31638   370            376            934            45             29913          7.9829589e-13
        80   59.143828          32061   371            376            942            49             30323          8.0401166e-13
        81   61.039638          32499   372            376            953            57             30741          8.1072331e-13
        82   63.014785          32928   376            376            970            59             31147          8.1748862e-13
        83   65.035175          33353   378            376            982            65             31552          8.2485398e-13
        84   67.067098          33789   378            377            996            73             31965          8.3265737e-13
        85   69.140868          34223   379            379            1019           75             32371          8.4085202e-13
        86   71.274543          34657   379            381            1035           86             32776          8.4965073e-13
        87   73.430378          35064   379            382            1055           92             33156          8.5908952e-13
        88   75.614319          35515   381            382            1080           100            33572          8.6926077e-13
        89   77.839155          35929   381            382            1109           107            33950          8.7981037e-13
        90   80.189333          36384   382            385            1141           115            34361          8.9102584e-13
        91   82.444473          36801   383            385            1171           124            34738          9.0248462e-13
        92   84.744781          37216   385            386            1193           133            35119          9.1396954e-13
        93   87.086505          37653   385            386            1231           135            35516          9.2591314e-13
        94   89.493322          38064   385            387            1259           138            35895          9.3800241e-13
        95   91.801679          38500   385            391            1292           148            36284          9.5042469e-13
        96   94.209251          38915   385            391            1318           160            36661          9.6222403e-13
        97   96.669882          39328   385            393            1347           163            37040          9.73946e-13  
        98   99.162683          39756   386            394            1378           171            37427          9.8599499e-13
        99   101.70962          40190   386            396            1415           184            37809          9.9762823e-13
       100   104.38935          40594   386            398            1451           187            38172          1.0096226e-12
       101   107.08518          41004   386            398            1477           197            38546          1.0218096e-12
       102   109.77936          41416   386            399            1508           201            38922          1.0346524e-12
       103   112.47345          41812   386            400            1559           205            39262          1.0477781e-12
       104   115.27745          42246   386            401            1600           213            39646          1.061303e-12 
       105   118.16433          42642   386            401            1628           223            40004          1.0753927e-12
       106   121.06113          43056   386            406            1673           228            40363          1.0900641e-12
       107   124.03687          43437   386            406            1713           231            40701          1.1053318e-12
       108   127.06607          43849   386            407            1755           236            41065          1.1215093e-12
       109   130.14598          44252   386            409            1804           245            41408          1.1385744e-12
       110   133.37714          44668   386            411            1856           249            41766          1.1566381e-12
       111   136.52056          45063   386            412            1905           256            42104          1.1752088e-12
       112   139.70677          45467   386            412            1957           264            42448          1.1942098e-12
       113   142.89792          45868   386            412            2026           268            42776          1.2133936e-12
       114   146.1502           46279   386            413            2084           282            43114          1.2326739e-12
       115   149.43586          46665   386            413            2131           292            43443          1.2519597e-12
       116   152.79339          47067   386            414            2191           303            43773          1.2711801e-12
       117   156.14656          47461   386            415            2257           310            44093          1.2904884e-12
       118   159.56534          47851   387            416            2318           319            44411          1.3091308e-12
       119   163.03928          48245   387            419            2370           330            44739          1.327201e-12 
       120   166.69714          48617   388            419            2418           346            45046          1.3448634e-12
       121   170.26219          49002   391            420            2481           350            45360          1.3617925e-12
       122   173.88299          49392   392            421            2532           364            45683          1.37824e-12  
       123   177.59867          49773   392            421            2582           373            46005          1.3943266e-12
       124   181.36516          50134   392            422            2626           382            46312          1.4101247e-12
       125   185.19377          50502   393            422            2685           398            46604          1.4258893e-12
       126   189.05647          50915   396            423            2729           417            46950          1.4408361e-12
       127   192.98638          51289   398            425            2774           434            47258          1.4550996e-12
       128   196.97306          51632   398            426            2801           458            47549          1.4692906e-12
       129   201.01271          52021   399            427            2819           487            47889          1.483724e-12 
       130   205.28802          52402   401            429            2864           512            48196          1.4977318e-12
       131   209.45228          52776   401            432            2905           529            48509          1.5118826e-12
       132   213.72456          53158   402            433            2936           554            48833          1.5259962e-12
       133   218.01422          53549   406            434            2978           577            49154          1.5406019e-12
       134   222.3443           53931   407            435            3029           598            49462          1.5553104e-12
       135   226.74537          54313   407            437            3066           622            49781          1.5698717e-12
       136   231.22138          54696   409            437            3103           656            50091          1.5843626e-12
       137   235.78789          55118   413            439            3151           679            50436          1.5990486e-12
       138   240.37673          55523   413            439            3182           716            50773          1.6140149e-12
       139   245.00681          55921   417            439            3226           745            51094          1.6286163e-12
       140   249.88693          56344   417            441            3281           768            51437          1.6436098e-12
       141   254.69831          56745   420            442            3343           786            51754          1.6591344e-12
       142   259.61907          57163   422            442            3404           807            52088          1.6748422e-12
       143   264.60675          57591   424            442            3458           831            52436          1.6907994e-12
       144   269.64849          58008   424            442            3529           844            52769          1.7073601e-12
       145   274.7469           58421   424            442            3600           861            53094          1.7237439e-12
       146   279.94845          58839   425            443            3667           880            53424          1.7399747e-12
       147   285.1763           59271   425            443            3755           889            53759          1.7568768e-12
       148   290.50363          59691   426            443            3813           913            54096          1.7735765e-12
       149   295.91064          60138   427            443            3889           925            54454          1.7907284e-12
       150   301.55827          60562   429            443            3969           941            54780          1.8080733e-12
       151   307.13818          60986   431            444            4038           955            55118          1.8259789e-12
       152   312.78205          61437   431            444            4123           962            55477          1.8443635e-12
       153   318.52556          61869   431            444            4211           976            55807          1.8632393e-12
       154   324.34643          62348   431            444            4315           985            56173          1.8825789e-12
       155   330.2366           62768   431            445            4412           999            56481          1.9023852e-12
       156   336.21015          63243   431            445            4514           1014           56839          1.9230027e-12
       157   342.26259          63665   431            446            4589           1028           57171          1.9440735e-12
       158   348.38353          64126   431            446            4665           1050           57534          1.9660773e-12
       159   354.55586          64569   431            446            4752           1076           57864          1.9881884e-12
       160   360.95988          65036   431            446            4847           1103           58209          2.0107949e-12
       161   367.23081          65487   431            446            4937           1123           58550          2.0336898e-12
       162   373.58411          65912   432            446            5013           1152           58869          2.0566196e-12
       163   379.98801          66402   432            446            5108           1182           59234          2.0796683e-12
       164   386.47683          66839   432            446            5188           1220           59553          2.1026315e-12
       165   393.06743          67335   432            446            5275           1252           59930          2.126425e-12 
       166   399.74915          67758   432            446            5351           1294           60235          2.150082e-12 
       167   406.54704          68221   432            446            5410           1346           60587          2.1742384e-12
       168   413.43935          68709   432            446            5505           1395           60931          2.1999859e-12
       169   420.4071           69156   432            446            5571           1447           61260          2.2265402e-12
       170   427.69704          69636   432            446            5678           1489           61591          2.2541725e-12
       171   434.83245          70097   432            446            5758           1539           61922          2.2828739e-12
       172   442.04031          70561   431            446            5859           1585           62240          2.3122341e-12
       173   449.32693          71036   431            446            5946           1628           62585          2.3421319e-12
       174   456.68562          71471   430            445            6040           1668           62888          2.3723248e-12
       175   464.13683          71941   430            445            6144           1707           63215          2.4029833e-12
       176   471.67014          72424   430            445            6273           1735           63541          2.433639e-12 
       177   479.30384          72868   430            445            6397           1755           63841          2.4645448e-12
       178   487.01658          73311   427            445            6502           1790           64147          2.4955981e-12
       179   494.83004          73774   427            445            6629           1814           64459          2.5272641e-12
       180   502.88351          74234   427            445            6755           1844           64763          2.5594819e-12
       181   510.85417          74699   426            445            6882           1869           65077          2.5919187e-12
       182   518.90689          75125   425            445            7004           1896           65355          2.6245097e-12
       183   527.06885          75607   424            444            7154           1924           65661          2.6580441e-12
       184   535.31182          76069   424            444            7284           1957           65960          2.6921339e-12
       185   543.62487          76521   423            444            7394           2010           66250          2.7260658e-12
       186   552.02011          76975   423            444            7500           2058           66550          2.7608007e-12
       187   560.51499          77422   423            444            7614           2106           66835          2.7954311e-12
       188   569.10601          77909   423            443            7749           2161           67133          2.8308547e-12
       189   577.7573           78364   423            443            7867           2222           67409          2.8665063e-12
       190   586.66845          78834   423            442            7966           2301           67702          2.9033159e-12
       191   595.48277          79296   423            442            8083           2366           67982          2.941091e-12 
       192   604.43447          79729   422            441            8164           2448           68254          2.9792038e-12
       193   613.42399          80208   420            441            8283           2523           68541          3.0185215e-12
       194   622.47884          80685   420            440            8394           2616           68815          3.0583723e-12
       195   631.62565          81161   420            439            8494           2709           69099          3.0988412e-12
       196   640.82079          81621   418            438            8585           2806           69374          3.1396957e-12
       197   650.14133          82077   417            438            8677           2891           69654          3.1804995e-12
       198   659.50864          82570   416            438            8790           2988           69938          3.2221014e-12
       199   668.96234          83032   415            438            8878           3089           70212          3.2636037e-12
       200   678.72013          83528   416            437            9023           3165           70487          3.3056008e-12
       201   688.36787          83994   416            436            9150           3234           70758          3.3485471e-12
       202   698.07993          84485   414            433            9282           3322           71034          3.3924971e-12
       203   707.84038          84960   413            433            9417           3389           71308          3.4386536e-12
       204   717.67411          85437   413            432            9554           3458           71580          3.4859881e-12
       205   727.60121          85962   412            431            9718           3540           71861          3.5353327e-12
       206   737.65239          86460   412            431            9885           3605           72127          3.5861017e-12
       207   747.74496          86936   411            431            10015          3674           72405          3.6379865e-12
       208   757.93763          87435   410            430            10178          3749           72668          3.6911315e-12
       209   768.2234           87929   410            430            10349          3822           72918          3.7449254e-12
       210   778.84684          88462   409            428            10522          3912           73191          3.7988984e-12
       211   789.27596          88999   408            427            10709          3987           73468          3.8545432e-12
       212   799.83806          89518   407            424            10901          4047           73739          3.9117158e-12
       213   810.417            90008   407            424            11113          4108           73956          3.9715584e-12
       214   821.07695          90580   404            423            11322          4178           74253          4.0353069e-12
       215   831.80292          91127   403            421            11552          4240           74511          4.1025195e-12
       216   842.62059          91685   402            421            11800          4314           74748          4.1741156e-12
       217   853.54742          92251   397            419            12050          4391           74994          4.2493444e-12
       218   864.5029           92850   396            417            12283          4488           75266          4.3292453e-12
       219   875.56226          93455   394            416            12543          4584           75518          4.4133361e-12
       220   886.95517          94051   391            415            12826          4668           75751          4.5001465e-12
       221   898.27534          94672   391            412            13129          4735           76005          4.5896009e-12
       222   909.72894          95311   390            410            13438          4812           76261          4.684969e-12 
       223   921.2722           95949   389            409            13738          4919           76494          4.7872133e-12
       224   932.96352          96620   385            405            14100          5013           76717          4.9006192e-12
       225   944.80883          97319   382            403            14453          5109           76972          5.0232541e-12
       226   956.83391          98051   381            401            14852          5206           77211          5.1576502e-12
       227   969.00963          98811   378            398            15308          5294           77433          5.3020248e-12
       228   981.35149          99597   376            397            15740          5403           77681          5.4512233e-12
       229   993.87685         100398   372            395            16226          5497           77908          5.6082667e-12
       230   1006.8054         101176   371            392            16685          5603           78125          5.7651432e-12
       231   1019.6634         101991   370            389            17143          5726           78363          5.9201638e-12
       232   1032.7726         102810   369            384            17599          5858           78600          6.0830663e-12
       233   1046.004          103584   367            382            18043          5980           78812          6.2364164e-12
       234   1059.4309         104388   366            377            18524          6094           79027          6.4016758e-12
       235   1073.1107         105287   364            375            19101          6188           79259          6.5742183e-12
       236   1086.8857         106124   357            372            19610          6308           79477          6.7415337e-12
       237   1100.8124         106959   355            372            20130          6428           79674          6.9239813e-12
       238   1114.8389         107835   352            370            20675          6542           79896          7.1072617e-12
       239   1128.9925         108755   349            367            21241          6685           80113          7.3014807e-12
       240   1143.5146         109687   345            363            21845          6835           80299          7.4996826e-12
       241   1157.9183         110676   342            360            22496          6977           80501          7.7007478e-12
       242   1172.5769         111672   339            359            23148          7122           80704          7.9376012e-12
       243   1187.3412         112616   336            357            23790          7253           80880          8.1374106e-12
       244   1202.166          113572   334            354            24433          7386           81065          8.3436763e-12
       245   1217.1012         114614   326            350            25182          7520           81236          8.5507524e-12
       246   1232.1215         115535   324            344            25803          7655           81409          8.7539875e-12
       247   1247.2341         116520   321            338            26482          7802           81577          8.9575348e-12
       248   1262.4609         117507   318            334            27145          7960           81750          9.1613682e-12
       249   1277.8219         118491   309            327            27858          8114           81883          9.3792215e-12
       250   1293.5475         119466   306            321            28531          8276           82032          9.5761161e-12
       251   1309.1212         120479   302            314            29239          8455           82169          9.7817404e-12
       252   1324.8004         121391   297            308            29851          8632           82303          9.9595741e-12
       253   1340.5969         122363   292            303            30554          8799           82415          1.0159612e-11
       254   1356.4676         123324   284            293            31217          8998           82532          1.0331028e-11
       255   1372.4793         124185   281            287            31796          9187           82634          1.0509081e-11
       256   1388.6034         125135   276            286            32472          9373           82728          1.0693955e-11
       257   1404.7867         126019   268            279            33064          9573           82835          1.0862531e-11
       258   1421.1201         126938   259            273            33656          9828           82922          1.1044698e-11
       259   1437.567          127882   250            266            34276          10088          83002          1.11905e-11  
       260   1454.3803         128750   242            261            34782          10395          83070          1.1362289e-11
       261   1471.0101         129568   238            256            35263          10677          83134          1.1505036e-11
       262   1487.736          130402   235            246            35722          11005          83194          1.1629232e-11
       263   1504.5041         131185   231            238            36101          11362          83253          1.1756777e-11
       264   1521.4098         131940   225            228            36443          11734          83310          1.1858578e-11
       265   1538.3799         132727   219            221            36828          12101          83358          1.1984467e-11
       266   1555.4277         133416   213            211            37073          12507          83412          1.2067465e-11
       267   1572.5405         134145   207            202            37402          12887          83447          1.2151173e-11
       268   1589.7592         134785   200            191            37626          13285          83483          1.2224044e-11
       269   1607.035          135455   195            183            37857          13704          83516          1.2287238e-11
       270   1624.69           136100   187            170            38094          14102          83547          1.2357867e-11
       271   1642.2386         136682   179            161            38262          14502          83578          1.2405017e-11
       272   1659.8968         137252   170            156            38441          14880          83605          1.2458683e-11
       273   1677.6319         137889   161            149            38727          15222          83630          1.2494899e-11
       274   1695.436          138446   154            139            38937          15558          83658          1.2493059e-11
       275   1713.3259         139031   144            129            39180          15887          83691          1.2529948e-11
       276   1731.283          139461   136            123            39290          16193          83719          1.253732e-11 
       277   1749.2527         139912   131            118            39440          16485          83738          1.2549331e-11
       278   1767.3367         140450   121            105            39630          16823          83771          1.2567002e-11
       279   1785.4905         140977   115            96             39862          17112          83792          1.25586e-11  
       280   1804.0406         141536   112            90             40111          17414          83809          1.2584474e-11
       281   1822.3528         141936   100            87             40166          17755          83828          1.2562849e-11
       282   1840.6401         142360   92             81             40249          18089          83849          1.2557594e-11
       283   1859.0301         142778   87             74             40332          18417          83868          1.2549373e-11
       284   1877.4955         143314   82             71             40530          18731          83900          1.2561633e-11
       285   1896.0135         143755   80             67             40600          19081          83927          1.2550926e-11
       286   1914.5692         144219   72             61             40693          19448          83945          1.2548778e-11
       287   1933.1955         144613   69             58             40697          19826          83963          1.2535128e-11
       288   1951.8368         145030   66             54             40720          20204          83986          1.2527116e-11
       289   1970.5658         145403   63             50             40705          20578          84007          1.2496484e-11
       290   1989.6695         145815   60             44             40739          20938          84034          1.2502494e-11
       291   2008.4964         146307   57             40             40891          21262          84057          1.2502273e-11
       292   2027.4119         146669   50             36             40890          21621          84072          1.2477351e-11
       293   2046.3761         147087   47             35             40918          21992          84095          1.2465469e-11
       294   2065.41           147478   47             26             40949          22339          84117          1.2449547e-11
       295   2084.4488         147822   44             26             40866          22750          84136          1.2444301e-11
       296   2103.4853         148267   41             24             40956          23089          84157          1.2452184e-11
       297   2122.6655         148667   39             22             40972          23453          84181          1.2417604e-11
       298   2141.8661         149017   38             22             40960          23796          84201          1.2400864e-11
       299   2161.1619         149411   36             22             41018          24115          84220          1.2401145e-11
       300   2180.9572         149773   35             21             41062          24412          84243          1.2388219e-11
       301   2200.412          150183   35             19             41130          24738          84261          1.2391118e-11
       302   2219.9339         150556   31             18             41128          25093          84286          1.2383241e-11
       303   2239.5273         151004   30             18             41183          25476          84297          1.2393411e-11
       304   2259.2062         151374   29             18             41189          25815          84323          1.2387173e-11
       305   2278.9562         151792   28             16             41240          26168          84340          1.2410792e-11
       306   2298.7849         152158   26             16             41201          26553          84362          1.2380996e-11
       307   2318.7017         152499   25             16             41124          26954          84380          1.2372288e-11
       308   2338.6738         152880   25             16             41082          27357          84400          1.2364963e-11
       309   2358.7189         153210   24             15             41012          27743          84416          1.2363762e-11
       310   2379.1512         153617   24             15             40963          28176          84439          1.2375726e-11
       311   2399.2891         153951   24             15             40868          28585          84459          1.2371682e-11
       312   2419.4534         154318   24             15             40789          29012          84478          1.2362097e-11
       313   2439.667          154671   24             14             40697          29439          84497          1.2353153e-11
       314   2460.0268         155102   24             14             40707          29841          84516          1.2373631e-11
       315   2480.4071         155493   23             14             40635          30283          84538          1.2383918e-11
       316   2500.8765         155730   23             14             40395          30744          84554          1.2353869e-11
       317   2521.3922         156126   22             14             40316          31195          84579          1.2355434e-11
       318   2542.0596         156476   22             14             40194          31651          84595          1.2370855e-11
       319   2562.7753         156808   22             14             40024          32133          84615          1.2357542e-11
       320   2583.9088         157229   22             14             39964          32593          84636          1.2367558e-11
Loop time of 2583.91 on 16 procs for 320 steps with 157229 atoms

97.6% CPU use with 16 MPI tasks x 1 OpenMP threads

MPI task timing breakdown:
Section |  min time  |  avg time  |  max time  |%varavg| %total
---------------------------------------------------------------
Pair    | 714.36     | 838.82     | 980.98     | 278.7 | 32.46
Neigh   | 547.05     | 626.01     | 733.24     | 263.3 | 24.23
Comm    | 337.93     | 377.67     | 427.05     | 149.7 | 14.62
Output  | 8.5183     | 8.5185     | 8.5195     |   0.0 |  0.33
Modify  | 491.25     | 719.06     | 923.25     | 584.5 | 27.83
Other   |            | 13.82      |            |       |  0.53

Nlocal:        9826.81 ave       13125 max        8051 min
Histogram: 5 3 0 2 2 1 0 0 1 2
Nghost:        7565.75 ave        8850 max        6478 min
Histogram: 4 2 0 1 2 1 2 1 0 3
Neighs:        93354.7 ave      101574 max       86244 min
Histogram: 1 3 3 0 2 1 2 0 1 3

Total # of neighbors = 1493675
Ave neighs/atom = 9.4999968
Neighbor list builds = 28165
Dangerous builds = 27845

Total wall time: 0:43:42
