LAMMPS (23 Jun 2022 - Update 4)
  using 1 OpenMP thread(s) per MPI task
package omp 0
using multi-threaded neighbor list subroutines
#-----------------------------------------------------------------------------#
#                NUFEB Simulation: Heterotrophic Biofilm Growth               #
#-----------------------------------------------------------------------------#


#-----------------------------System Settings---------------------------------#

units si                                    # using si units (m, s, kg)
atom_style      coccus                      # using nufeb coccus atom style
atom_modify     map array sort 10 0         # map array - find atoms using indices
		                            # sort every 10

boundary        pp pp ff                    # periodic boundaries in x and y
                                            # fixed boundary in z

newton          off                         # forces between local and ghost
                                            # atoms are computed in each
					     # processor without communication

processors      * * 1                       # processor grid

comm_modify     vel yes                     # communicate velocities for ghost atoms

read_data       atom_ch.in	             # read atom.in file which defines domain size
Reading data file ...
  orthogonal box = (0 0 0) to (6e-05 6e-05 6e-05)
  4 by 4 by 1 MPI processor grid
  reading atoms ...
  150 atoms
  read_data CPU = 0.012 seconds
                                            # and initial atoms


#--------------------Microbes and Functional Groups-------------------------#

group           CROSS1   type 1               # assign type 1,2 atoms to CROSS group
50 atoms in group CROSS1
group           CROSS2   type 2
50 atoms in group CROSS2
group		CHEATER  type 3
50 atoms in group CHEATER
group           dead     type 4
0 atoms in group dead
group		EPS	 type 5
0 atoms in group EPS

neighbor        5e-7 bin                   # setting neighbour skin distance and style

neigh_modify    check yes                  # rebuild neighbour list if any atom
                                           # had moved more than half the skin distance


#--------------------------Mesh Grid and Substrates--------------------------#

# defining grid sytle, substrate names, and grid size
grid_style      nufeb/chemostat 3 sub metab1 metab2 5e-6

# set diffusion boundary conditions and initial concentrations (liquid:kg/m3)
grid_modify     set sub      pp pp nd  1.8e-4
No /omp style for force computation currently active
grid_modify     set metab1   pp pp nd  1e-4
No /omp style for force computation currently active
grid_modify     set metab2   pp pp nd  1e-4
No /omp style for force computation currently active


#--------------------------Biological Processes-------------------------------#

# heterotrophs growth
fix growth_cross1 CROSS1 nufeb/growth/cross1 sub 3.5e-5 metab2 4e-3 metab1 growth 0.009 yield 0.6 decay 2.6e-6 metab1_exp 20 epsyield 0.12 epsdens 30

fix growth_cross2 CROSS2 nufeb/growth/cross2 sub 3.5e-5 metab1 4e-3 metab2 growth 0.009 yield 0.6 decay 2.6e-6 metab2_exp 20 epsyield 0.12 epsdens 30

fix growth_cheater CHEATER nufeb/growth/cheater sub 3.5e-5 metab1 1e-3 metab2 1e-3 growth 0.009 yield 0.6 decay 2.6e-6

# heterotrophs division, division diameter: 1.36e-6
fix div1 CROSS1 nufeb/division/coccus 1.36e-6 2039
fix div2 CROSS2 nufeb/division/coccus 1.36e-6 7850
fix div3 CHEATER nufeb/division/coccus 1.36e-6 17533

fix death1 CROSS1 nufeb/death/diameter dead 5.43e-7
fix death2 CROSS2 nufeb/death/diameter dead 5.43e-7
fix death3 CHEATER nufeb/death/diameter dead 5.43e-7

# EPS secretion from heterotrophs
fix eps1 CROSS1 nufeb/eps_secretion 5 EPS 1.1 30 31088
fix eps2 CROSS2 nufeb/eps_secretion 5 EPS 1.1 30 48515

#---------------------------Physical Processes--------------------------------#

pair_style  gran/hooke/history 1e-4 NULL 1e-5 NULL 0.0 0    # pairwise interaction
pair_coeff  * *                                             # between atoms

# pairwise interaction between z-wall and atoms
fix wall all wall/gran hooke/history 1e-3 NULL 1e-4 NULL 0 0 zplane 0.0 1e-04

fix vis all viscous 1e-5                                    # viscous damping force

fix grav all gravity 9.81 vector 0.0 0.0 -1.0

fix nve all nve/limit 1e-7                                  # NVE integration with
                                                            # maximum distance limit


#---------------------------Post-Physical Processes---------------------------#

fix coeff_sub all nufeb/diffusion_coeff sub ratio 0.8       # defining diffusion coeff in the biofilm
fix coeff_metab1 all nufeb/diffusion_coeff metab1 ratio 0.8    # region is 80% of the value in liquid
fix coeff_metab2 all nufeb/diffusion_coeff metab2 ratio 0.8

#---------------------------Chemical Processes---------------------------------#

fix diff_sub all nufeb/diffusion_reaction sub 1e-9        # diffusion reaction for updating
fix diff_metab1 all nufeb/diffusion_reaction metab1 4e-9     # distribusion of substrate concentration
fix diff_metab2 all nufeb/diffusion_reaction metab2 4e-9

#--------------------------Computations and Outputs----------------------------#

variable mass equal "mass(all)"                             # total mass
variable ncross1 equal "count(CROSS1)"                      # total # of CROSS1
variable ncross2 equal "count(CROSS2)"                      # total # of CROSS2
variable ncheater equal "count(CHEATER)"
variable ndead equal "count(dead)"
variable neps equal "count(EPS)"

shell mkdir vtk_EPS_ch                                            # dump vtk files to /vtk folder
dump du1 all vtk 10 vtk_EPS_ch/dump*.vtu id type diameter         # require build NUFEB with vtk option
dump du2 all grid/vtk 10 vtk_EPS_ch/dump_%_*.vti con rea den gro

#dump du3 all movie 10 movie.avi type diameter view 80 60    # dump video
#dump_modify du3 acolor 1 blue acolor 2 lightgrey framerate 10


                                                            # dump hdf5 files to /hdf5 folder
#shell mkdir hdf5                                           # require build NUFEB with hdf5 option
#dump du3 all nufeb/hdf5 10 dump.h5 id type x y z vx vy vz fx fy fz radius conc reac

thermo_style custom step cpu atoms v_ncross1 v_ncross2 v_ncheater v_ndead v_neps v_mass     # screen and log outputs
thermo 1
thermo_modify   lost ignore

#-----------------------------------Run----------------------------------------#

# issue run command, define timesteps for physical (pairdt) and chemical (diffdt) processes
run_style nufeb diffdt 1e-4 difftol 1e-6 pairdt 1e-2 pairtol 1 pairmax 1000 diffmax 5000

timestep 12000                                               # define biological timesteps (1000s)

run 320                                                    # growing biofilm for 900x1000s
Generated 0 of 6 mixed pair_coeff terms from geometric mixing rule
Last active /omp style is pair_style gran/hooke/history/omp
Neighbor list info ...
  update every 1 steps, delay 10 steps, check yes
  max neighbors/atom: 2000, page size: 100000
  master list distance cutoff = 2.49e-06
  ghost atom cutoff = 2.49e-06
  binsize = 1.245e-06, bins = 49 49 49
  1 neighbor lists, perpetual/occasional/extra = 1 0 0
  (1) pair gran/hooke/history/omp, perpetual
      attributes: half, newton off, size, history, omp
      pair build: half/size/bin/newtoff/omp
      stencil: full/bin/3d
      bin: standard
Per MPI rank memory allocation (min/avg/max) = 11.02 | 11.02 | 11.02 Mbytes
   Step          CPU          Atoms      v_ncross1      v_ncross2      v_ncheater      v_ndead         v_neps         v_mass    
         0   0                    150   50             50             50             0              0              1.3295396e-13
         1   0.38538338           432   90             85             86             0              171            1.7274802e-13
         2   0.77069645           788   117            126            136            0              409            1.9585068e-13
         3   1.0891248           1116   129            143            180            0              664            2.1507831e-13
         4   1.3858682           1439   138            154            202            0              945            2.3292436e-13
         5   1.604646            1745   142            159            216            0              1228           2.5004761e-13
         6   1.7798663           2076   148            171            232            0              1525           2.6709999e-13
         7   1.9423857           2407   153            175            251            0              1828           2.8376275e-13
         8   2.0877497           2758   161            185            274            0              2138           2.9991962e-13
         9   2.2426961           3130   171            198            284            0              2477           3.159115e-13 
        10   10.059842           3498   174            209            309            0              2806           3.3177946e-13
        11   10.18494            3892   179            217            329            0              3167           3.474935e-13 
        12   10.312705           4290   189            224            352            0              3525           3.6287469e-13
        13   10.407905           4688   195            227            366            0              3900           3.7801969e-13
        14   10.505548           5079   196            232            385            0              4266           3.9262414e-13
        15   10.600999           5464   198            236            400            0              4630           4.0681793e-13
        16   10.733371           5867   202            242            417            0              5006           4.2047708e-13
        17   10.842804           6275   208            245            443            0              5379           4.3408757e-13
        18   10.967227           6680   213            251            458            0              5758           4.4729642e-13
        19   11.046221           7086   219            254            477            0              6136           4.6009283e-13
        20   11.247219           7501   221            261            493            0              6526           4.7277749e-13
        21   11.361418           7906   225            263            509            0              6909           4.8516169e-13
        22   11.474526           8289   226            265            527            0              7271           4.9727413e-13
        23   11.611455           8693   230            271            538            0              7654           5.0889256e-13
        24   11.749328           9064   231            276            547            0              8010           5.2019708e-13
        25   11.885351           9480   237            281            576            0              8386           5.3158386e-13
        26   12.052081           9872   241            286            593            0              8752           5.4283196e-13
        27   12.219355          10269   245            287            611            0              9126           5.5420493e-13
        28   12.420271          10665   249            291            628            0              9497           5.6565696e-13
        29   12.604502          11076   252            297            649            0              9878           5.7731177e-13
        30   12.816164          11462   255            298            660            0              10249          5.8898553e-13
        31   12.980092          11862   257            301            681            0              10623          6.0060196e-13
        32   13.159511          12249   258            303            705            0              10983          6.1212388e-13
        33   13.332845          12650   259            303            722            0              11366          6.2359832e-13
        34   13.50269           13031   262            307            749            0              11713          6.3453957e-13
        35   13.668706          13412   264            309            766            0              12073          6.4507302e-13
        36   13.867526          13826   270            314            788            0              12454          6.5519416e-13
        37   14.102895          14205   271            316            807            0              12811          6.649857e-13 
        38   14.356294          14590   273            319            824            0              13174          6.7486803e-13
        39   14.69095           14981   275            321            844            0              13541          6.8389913e-13
        40   15.019155          15389   276            325            863            0              13925          6.9262873e-13
        41   15.292835          15747   280            326            883            0              14258          7.0086595e-13
        42   15.79654           16149   284            327            899            0              14639          7.0926335e-13
        43   16.505425          16541   289            332            911            0              15009          7.1732701e-13
        44   17.265439          16926   290            332            929            0              15375          7.2599011e-13
        45   18.031213          17328   295            333            951            0              15749          7.3495848e-13
        46   18.876924          17716   297            334            971            0              16114          7.443682e-13 
        47   19.860551          18108   298            335            989            0              16486          7.5370663e-13
        48   20.850069          18489   299            335            1013           0              16842          7.6333966e-13
        49   21.913966          18880   299            335            1031           0              17215          7.7291933e-13
        50   23.018862          19277   301            337            1054           0              17585          7.8253522e-13
        51   24.081469          19657   302            340            1075           1              17939          7.9176687e-13
        52   25.163066          20066   304            340            1100           2              18320          8.0065602e-13
        53   26.266233          20429   305            342            1125           2              18655          8.0930998e-13
        54   27.371918          20867   307            344            1153           2              19061          8.1786703e-13
        55   28.484643          21234   307            344            1178           2              19403          8.2600653e-13
        56   29.688221          21633   311            345            1188           3              19786          8.3381119e-13
        57   30.902921          22045   316            346            1215           5              20163          8.419699e-13 
        58   32.250082          22453   321            347            1238           7              20540          8.4995452e-13
        59   33.597474          22865   322            347            1262           9              20925          8.5903214e-13
        60   35.104208          23262   324            347            1293           11             21287          8.6852322e-13
        61   36.622353          23672   326            348            1320           13             21665          8.7904029e-13
        62   38.162594          24077   326            348            1359           17             22027          8.9045656e-13
        63   39.690729          24491   330            349            1395           19             22398          9.0327397e-13
        64   41.24927           24893   330            350            1431           23             22759          9.1681714e-13
        65   42.804123          25293   331            350            1472           25             23115          9.3113807e-13
        66   44.393585          25686   331            350            1508           29             23468          9.458426e-13 
        67   45.949812          26091   332            352            1560           31             23816          9.6092338e-13
        68   47.540761          26511   332            353            1613           35             24178          9.7613413e-13
        69   49.178787          26913   332            354            1657           36             24534          9.9129606e-13
        70   50.922151          27296   334            354            1711           41             24856          1.0067179e-12
        71   52.660337          27712   335            354            1758           49             25216          1.022647e-12 
        72   54.487819          28109   337            357            1811           55             25549          1.0388495e-12
        73   56.333422          28530   338            357            1868           60             25907          1.0564287e-12
        74   58.19095           28908   338            357            1928           66             26219          1.0742408e-12
        75   60.148907          29306   338            358            1975           78             26557          1.0927208e-12
        76   62.082117          29711   338            358            2030           94             26891          1.1119494e-12
        77   64.047567          30102   338            358            2092           102            27212          1.1313573e-12
        78   66.021927          30521   339            360            2148           115            27559          1.1508354e-12
        79   68.032008          30894   339            360            2205           123            27867          1.1700491e-12
        80   70.150804          31285   339            360            2257           134            28195          1.1891166e-12
        81   72.269479          31683   340            360            2307           149            28527          1.2081351e-12
        82   74.345558          32072   341            360            2359           160            28852          1.2269791e-12
        83   76.47487           32468   343            361            2422           169            29173          1.2453879e-12
        84   78.69218           32879   345            361            2486           179            29508          1.263885e-12 
        85   80.960559          33254   346            361            2540           187            29820          1.2828305e-12
        86   83.299332          33666   347            361            2599           201            30158          1.3017968e-12
        87   85.672327          34044   347            361            2662           209            30465          1.3216847e-12
        88   88.089279          34439   348            361            2731           215            30784          1.3421952e-12
        89   90.546036          34827   348            361            2800           219            31099          1.3633361e-12
        90   93.140439          35232   349            361            2886           226            31410          1.3849621e-12
        91   95.678877          35635   349            361            2955           238            31732          1.4067735e-12
        92   98.255254          36021   349            361            3022           246            32043          1.4287285e-12
        93   100.84764          36399   350            361            3089           254            32345          1.4504303e-12
        94   103.52354          36805   350            362            3160           259            32674          1.4718991e-12
        95   106.26014          37191   350            362            3249           265            32965          1.4938067e-12
        96   109.05226          37583   350            362            3330           270            33271          1.5158264e-12
        97   111.91073          37978   350            362            3408           275            33583          1.5384316e-12
        98   114.81799          38384   351            362            3498           282            33891          1.5623165e-12
        99   117.76675          38787   351            362            3584           287            34203          1.5871645e-12
       100   120.89133          39199   352            362            3684           291            34510          1.6130065e-12
       101   123.95001          39560   352            362            3770           298            34778          1.6397635e-12
       102   127.05349          39984   352            362            3867           307            35096          1.6669587e-12
       103   130.22149          40382   352            362            3961           311            35396          1.6941437e-12
       104   133.40931          40751   352            362            4057           320            35660          1.7210962e-12
       105   136.69173          41195   352            362            4162           337            35982          1.7478771e-12
       106   140.00009          41582   352            362            4252           351            36265          1.7749211e-12
       107   143.38497          41964   352            362            4339           365            36546          1.8017735e-12
       108   146.83949          42392   352            363            4440           382            36855          1.8292933e-12
       109   150.34096          42784   351            363            4547           400            37123          1.858326e-12 
       110   154.00914          43197   351            363            4646           434            37403          1.8885535e-12
       111   157.63671          43620   351            363            4741           463            37702          1.9196614e-12
       112   161.32424          44015   351            363            4825           500            37976          1.9516699e-12
       113   165.07875          44421   351            363            4928           533            38246          1.9842269e-12
       114   168.89119          44820   351            363            5007           578            38521          2.0174599e-12
       115   172.76048          45242   351            363            5106           640            38782          2.0505009e-12
       116   176.70409          45667   350            363            5197           682            39075          2.0837631e-12
       117   180.71902          46063   350            364            5261           731            39357          2.117136e-12 
       118   184.83418          46472   350            364            5376           764            39618          2.151841e-12 
       119   189.02237          46879   350            364            5473           816            39876          2.1873149e-12
       120   193.39838          47340   350            364            5597           859            40170          2.2244836e-12
       121   197.73651          47729   350            364            5709           897            40409          2.2628421e-12
       122   202.15788          48147   350            364            5825           931            40677          2.3026913e-12
       123   206.66725          48574   350            364            5949           969            40942          2.3432374e-12
       124   211.24078          48986   350            364            6068           1013           41191          2.3841015e-12
       125   215.90282          49412   350            364            6197           1049           41452          2.4254296e-12
       126   220.62655          49833   350            364            6320           1091           41708          2.4673349e-12
       127   225.42934          50286   350            364            6484           1120           41968          2.5103536e-12
       128   230.30439          50747   350            364            6641           1158           42234          2.5545911e-12
       129   235.24123          51138   350            364            6776           1188           42460          2.5991172e-12
       130   240.40563          51588   350            364            6937           1219           42718          2.6456436e-12
       131   245.54263          52033   349            364            7065           1272           42983          2.6939474e-12
       132   250.77188          52462   349            364            7236           1308           43205          2.7439996e-12
       133   256.11719          52949   349            364            7418           1344           43474          2.7951462e-12
       134   261.56003          53381   349            364            7564           1386           43718          2.8471846e-12
       135   267.10962          53867   348            364            7767           1425           43963          2.9007194e-12
       136   272.74486          54323   348            364            7941           1466           44204          2.9558445e-12
       137   278.47992          54796   348            364            8102           1524           44458          3.0119667e-12
       138   284.3094           55270   348            362            8295           1564           44701          3.0702864e-12
       139   290.25063          55780   348            362            8507           1614           44949          3.1320161e-12
       140   296.4355           56256   348            362            8708           1654           45184          3.1971413e-12
       141   302.60962          56775   348            362            8934           1704           45427          3.2647994e-12
       142   308.93573          57314   348            361            9177           1753           45675          3.3358006e-12
       143   315.36444          57804   346            361            9403           1800           45894          3.4088548e-12
       144   321.92934          58338   346            361            9639           1849           46143          3.4854846e-12
       145   328.6338           58869   346            361            9890           1899           46373          3.5636313e-12
       146   335.48958          59424   346            361            10166          1944           46607          3.6474198e-12
       147   342.48349          59998   346            361            10448          1986           46857          3.7357217e-12
       148   349.60233          60576   346            361            10760          2035           47074          3.8312291e-12
       149   356.85276          61203   346            361            11090          2080           47326          3.9362813e-12
       150   364.38749          61822   346            361            11445          2123           47547          4.0493182e-12
       151   371.99589          62475   346            361            11814          2176           47778          4.1701269e-12
       152   379.78206          63128   346            361            12181          2223           48017          4.2979701e-12
       153   387.72406          63826   346            361            12598          2271           48250          4.4326248e-12
       154   395.8677           64502   346            361            13015          2313           48467          4.5748526e-12
       155   404.1724           65225   346            361            13465          2355           48698          4.7140737e-12
       156   412.64493          65930   344            361            13881          2418           48926          4.8574545e-12
       157   421.29593          66645   343            361            14304          2482           49155          4.9993571e-12
       158   430.13277          67376   343            359            14754          2544           49376          5.144146e-12 
       159   439.12974          68105   343            359            15205          2604           49594          5.2901322e-12
       160   448.46509          68874   343            358            15676          2678           49819          5.4357308e-12
       161   457.84791          69665   343            358            16188          2741           50035          5.5940507e-12
       162   467.39114          70461   343            358            16681          2813           50266          5.7504978e-12
       163   477.06715          71147   343            358            17092          2889           50465          5.8942547e-12
       164   486.92393          71929   343            358            17605          2957           50666          6.0552676e-12
       165   496.9302           72759   342            357            18123          3036           50901          6.2018116e-12
       166   507.04595          73527   341            356            18602          3125           51103          6.3621489e-12
       167   517.34674          74378   340            356            19174          3212           51296          6.5383814e-12
       168   527.70737          75219   340            356            19728          3294           51501          6.7156401e-12
       169   538.14009          76036   340            355            20224          3397           51720          6.8764412e-12
       170   548.87285          76869   340            355            20752          3520           51902          7.0563343e-12
       171   559.58171          77701   339            354            21262          3651           52095          7.2230727e-12
       172   570.3735           78634   338            353            21870          3780           52293          7.4127373e-12
       173   581.24209          79529   338            353            22448          3914           52476          7.6095673e-12
       174   592.18325          80426   338            353            23076          4015           52644          7.8170377e-12
       175   603.19263          81319   338            353            23662          4158           52808          8.001145e-12 
       176   614.28514          82233   338            352            24254          4292           52997          8.2081592e-12
       177   625.45269          83126   338            350            24867          4424           53147          8.4033315e-12
       178   636.70786          84006   337            347            25432          4589           53301          8.5977769e-12
       179   647.99413          85006   337            346            26144          4738           53441          8.8097493e-12
       180   659.55414          85951   336            346            26771          4900           53598          9.0235949e-12
       181   671.03205          86876   336            345            27386          5069           53740          9.2089684e-12
       182   682.57692          87877   336            345            28097          5241           53858          9.4388207e-12
       183   694.18963          88758   334            345            28649          5461           53969          9.6313669e-12
       184   705.82487          89722   333            344            29293          5666           54086          9.8273996e-12
       185   717.53244          90584   328            343            29807          5910           54196          1.0055395e-11
       186   729.32766          91517   327            340            30374          6165           54311          1.0218312e-11
       187   741.2382           92510   326            338            31034          6410           54402          1.0431721e-11
       188   753.24561          93408   326            334            31609          6658           54481          1.0610099e-11
       189   765.31814          94259   325            331            32124          6911           54568          1.0779478e-11
       190   777.65497          95020   323            330            32554          7173           54640          1.0932905e-11
       191   789.84531          95797   320            329            33009          7426           54713          1.1056336e-11
       192   802.17718          96620   319            327            33492          7695           54787          1.1180912e-11
       193   814.51704          97402   318            327            33947          7947           54863          1.1318955e-11
       194   826.94846          98120   317            326            34316          8227           54934          1.1441564e-11
       195   839.44624          98801   316            325            34691          8477           54992          1.1523464e-11
       196   851.98554          99509   315            324            35103          8716           55051          1.1621399e-11
       197   864.62521         100212   313            318            35527          8946           55108          1.1702409e-11
       198   877.33036         100906   313            312            35970          9147           55164          1.1783236e-11
       199   890.08439         101545   309            306            36337          9374           55219          1.1866277e-11
       200   903.17589         102091   302            300            36653          9572           55264          1.1904951e-11
       201   916.02446         102722   299            291            37038          9784           55310          1.1955661e-11
       202   928.97858         103301   292            284            37351          10018          55356          1.2001484e-11
       203   941.9551          103855   289            280            37679          10216          55391          1.202873e-11 
       204   954.98131         104409   283            265            37980          10444          55437          1.2048527e-11
       205   968.10064         104912   278            259            38212          10695          55468          1.2065792e-11
       206   981.26262         105437   270            256            38433          10968          55510          1.2108622e-11
       207   994.54809         105951   262            242            38625          11271          55551          1.2107748e-11
       208   1008.0574         106457   251            237            38776          11608          55585          1.2116185e-11
       209   1021.6383         106949   241            226            38905          11947          55630          1.2135209e-11
       210   1035.4992         107440   236            218            39028          12295          55663          1.2137877e-11
       211   1049.1067         107913   232            204            39152          12624          55701          1.2142535e-11
       212   1062.8019         108362   215            196            39284          12932          55735          1.2145328e-11
       213   1076.5246         108884   208            191            39424          13289          55772          1.2148217e-11
       214   1090.3422         109333   197            183            39501          13641          55811          1.2141672e-11
       215   1104.2372         109703   185            174            39519          13982          55843          1.2116209e-11
       216   1118.1837         110130   173            168            39601          14307          55881          1.2114433e-11
       217   1132.2841         110628   163            157            39724          14670          55914          1.2125184e-11
       218   1146.445          111049   156            144            39819          14979          55951          1.2122163e-11
       219   1160.674          111486   148            137            39907          15307          55987          1.2104413e-11
       220   1175.2203         111868   142            128            39960          15619          56019          1.2082725e-11
       221   1189.4805         112285   137            118            40027          15948          56055          1.2083153e-11
       222   1203.8318         112693   126            108            40092          16264          56103          1.2074268e-11
       223   1218.2228         113131   124            96             40215          16569          56127          1.2069012e-11
       224   1232.6753         113524   120            95             40257          16891          56161          1.2059711e-11
       225   1247.1275         113970   113            86             40366          17216          56189          1.2060086e-11
       226   1261.6498         114444   105            83             40459          17570          56227          1.2079895e-11
       227   1276.2176         114791   99             70             40424          17928          56270          1.2068044e-11
       228   1290.857          115225   91             65             40538          18230          56301          1.208039e-11 
       229   1305.5587         115644   82             60             40651          18521          56330          1.2048772e-11
       230   1320.6049         115975   77             53             40633          18850          56362          1.2027969e-11
       231   1335.4124         116374   69             48             40694          19164          56399          1.2024461e-11
       232   1350.2564         116783   61             43             40750          19506          56423          1.2035968e-11
       233   1365.151          117099   58             39             40696          19855          56451          1.2006796e-11
       234   1380.105          117535   56             36             40757          20206          56480          1.2008051e-11
       235   1395.1588         117900   52             36             40751          20549          56512          1.1986416e-11
       236   1410.2346         118248   50             36             40729          20892          56541          1.1982664e-11
       237   1425.3744         118605   47             35             40697          21262          56564          1.2002266e-11
       238   1440.6012         119017   42             32             40726          21623          56594          1.1984045e-11
       239   1455.8977         119408   39             32             40734          21981          56622          1.1998988e-11
       240   1471.5019         119846   37             32             40824          22308          56645          1.2008994e-11
       241   1486.9435         120190   36             30             40758          22695          56671          1.2003598e-11
       242   1502.4414         120543   33             27             40685          23105          56693          1.2019024e-11
       243   1517.9972         120916   32             26             40631          23508          56719          1.2013803e-11
       244   1533.5825         121203   31             24             40511          23896          56741          1.1983104e-11
       245   1549.2397         121619   30             22             40451          24351          56765          1.1978463e-11
       246   1564.9604         121960   28             22             40303          24819          56788          1.1989871e-11
       247   1580.7506         122344   28             22             40246          25237          56811          1.1977466e-11
       248   1596.6077         122703   27             21             40123          25698          56834          1.199248e-11 
       249   1612.4527         123012   27             21             39977          26130          56857          1.1994705e-11
       250   1628.6677         123382   27             21             39842          26611          56881          1.1997498e-11
       251   1644.6501         123675   27             20             39608          27116          56904          1.1994684e-11
       252   1660.746          124097   27             20             39512          27612          56926          1.1999617e-11
       253   1676.868          124496   27             20             39413          28086          56950          1.200585e-11 
       254   1693.0063         124741   27             20             39138          28585          56971          1.1998828e-11
       255   1709.2851         125074   27             20             38949          29083          56995          1.1996597e-11
       256   1725.6085         125384   27             19             38743          29579          57016          1.19973e-11  
       257   1741.8991         125803   27             19             38637          30078          57042          1.2042599e-11
       258   1758.3683         126275   27             19             38601          30565          57063          1.2038242e-11
       259   1774.7267         126600   27             19             38401          31064          57089          1.2053908e-11
       260   1791.575          126889   26             18             38197          31537          57111          1.2039977e-11
       261   1808.2075         127219   26             17             38048          31996          57132          1.2072329e-11
       262   1824.8749         127558   26             17             37935          32426          57154          1.2082221e-11
       263   1841.3545         127980   26             17             37872          32887          57178          1.2101809e-11
       264   1858.1506         128321   26             16             37717          33364          57198          1.2109156e-11
       265   1874.9817         128546   26             16             37473          33810          57221          1.2064817e-11
       266   1891.7505         128976   26             16             37440          34251          57243          1.2126108e-11
       267   1908.5496         129254   26             16             37233          34711          57268          1.2119329e-11
       268   1925.3709         129590   26             16             37116          35144          57288          1.2114878e-11
       269   1942.2284         129987   26             16             37115          35516          57314          1.2142962e-11
       270   1959.4375         130335   26             16             37049          35911          57333          1.2149399e-11
       271   1976.4478         130662   26             16             36959          36305          57356          1.2163077e-11
       272   1993.5463         130969   26             16             36840          36710          57377          1.2170261e-11
       273   2010.7072         131335   26             16             36781          37113          57399          1.2193022e-11
       274   2027.8778         131653   26             16             36712          37480          57419          1.2211754e-11
       275   2045.1416         131935   26             16             36592          37859          57442          1.2210497e-11
       276   2062.466          132354   26             16             36645          38202          57465          1.2232736e-11
       277   2079.857          132695   26             16             36604          38561          57488          1.2232105e-11
       278   2097.3506         133068   26             16             36598          38919          57509          1.2250819e-11
       279   2114.9225         133339   26             16             36533          39232          57532          1.2271265e-11
       280   2132.8248         133583   26             16             36424          39563          57554          1.2259537e-11
       281   2150.4902         133939   26             16             36378          39942          57577          1.2277656e-11
       282   2168.2633         134301   26             16             36374          40286          57599          1.2280598e-11
       283   2186.0156         134650   26             16             36343          40642          57623          1.2291859e-11
       284   2203.8518         134989   26             16             36333          40972          57642          1.2305409e-11
       285   2221.8164         135325   26             16             36284          41329          57670          1.2309884e-11
       286   2239.841          135592   26             16             36194          41671          57685          1.2312972e-11
       287   2257.8317         135925   26             16             36148          42019          57716          1.2340668e-11
       288   2275.9655         136229   26             16             36093          42361          57733          1.2326967e-11
       289   2294.066          136590   26             16             36138          42651          57759          1.2348568e-11
       290   2312.598          136977   26             16             36166          42991          57778          1.237606e-11 
       291   2330.9048         137209   26             16             36078          43285          57804          1.2380154e-11
       292   2349.3523         137534   26             16             36039          43625          57828          1.2399816e-11
       293   2367.8093         137889   26             16             36056          43943          57848          1.2400342e-11
       294   2386.3195         138204   26             16             36049          44241          57872          1.240219e-11 
       295   2404.8314         138510   26             16             35999          44575          57894          1.2408325e-11
       296   2423.4415         138847   26             16             36011          44876          57918          1.2414291e-11
       297   2442.0995         139115   26             16             35926          45210          57937          1.241638e-11 
       298   2460.8009         139473   26             16             35941          45526          57964          1.2421428e-11
       299   2479.6193         139784   26             16             35916          45840          57986          1.24619e-11  
       300   2498.8591         140085   26             16             35895          46140          58008          1.2455858e-11
       301   2517.7984         140402   26             16             35871          46458          58031          1.2440977e-11
       302   2536.725          140733   26             16             35879          46758          58054          1.2472395e-11
       303   2555.6271         141028   26             16             35854          47058          58074          1.2472414e-11
       304   2574.6678         141400   26             16             35869          47386          58103          1.2485203e-11
       305   2593.7639         141703   26             16             35833          47705          58123          1.2505438e-11
       306   2612.9128         142020   26             16             35830          47999          58149          1.2535108e-11
       307   2632.0974         142324   26             16             35794          48321          58167          1.253505e-11 
       308   2651.3575         142667   26             16             35789          48640          58196          1.2546044e-11
       309   2670.6763         142950   26             16             35741          48946          58221          1.2561845e-11
       310   2690.3206         143294   26             16             35744          49265          58243          1.2571382e-11
       311   2709.836          143619   26             16             35746          49563          58268          1.2561253e-11
       312   2729.3682         143959   26             16             35781          49846          58290          1.2593985e-11
       313   2749.0438         144267   26             16             35754          50157          58314          1.2594724e-11
       314   2768.7402         144512   26             16             35679          50455          58336          1.2612617e-11
       315   2788.5853         144814   26             16             35619          50793          58360          1.2608383e-11
       316   2808.4737         145169   26             16             35666          51078          58383          1.2611904e-11
       317   2828.4276         145502   26             16             35694          51361          58405          1.2623164e-11
       318   2848.3917         145835   26             16             35689          51676          58428          1.2640404e-11
       319   2868.4296         146005   26             16             35528          51984          58451          1.2624167e-11
       320   2888.9159         146347   26             16             35540          52293          58472          1.2620166e-11
Loop time of 2888.92 on 16 procs for 320 steps with 146347 atoms

98.1% CPU use with 16 MPI tasks x 1 OpenMP threads

MPI task timing breakdown:
Section |  min time  |  avg time  |  max time  |%varavg| %total
---------------------------------------------------------------
Pair    | 722.03     | 817.47     | 1077.1     | 327.1 | 28.30
Neigh   | 428.21     | 540.11     | 876.31     | 541.5 | 18.70
Comm    | 301.93     | 375.72     | 450.78     | 246.8 | 13.01
Output  | 13.641     | 13.641     | 13.642     |   0.0 |  0.47
Modify  | 459.53     | 1128.4     | 1386.9     | 740.8 | 39.06
Other   |            | 13.61      |            |       |  0.47

Nlocal:        9146.69 ave       13864 max        7740 min
Histogram: 9 3 0 2 0 0 0 0 0 2
Nghost:        7024.06 ave        9185 max        6008 min
Histogram: 6 3 1 2 0 0 1 1 0 2
Neighs:        89420.2 ave      105206 max       82012 min
Histogram: 2 5 3 1 1 2 0 1 0 1

Total # of neighbors = 1430724
Ave neighs/atom = 9.7762441
Neighbor list builds = 27959
Dangerous builds = 27639

Total wall time: 0:48:47
