LAMMPS (23 Jun 2022 - Update 4)
  using 1 OpenMP thread(s) per MPI task
package omp 0
using multi-threaded neighbor list subroutines
#-----------------------------------------------------------------------------#
#                NUFEB Simulation: Heterotrophic Biofilm Growth               #
#-----------------------------------------------------------------------------#


#-----------------------------System Settings---------------------------------#

units si                                    # using si units (m, s, kg)
atom_style      coccus                      # using nufeb coccus atom style
atom_modify     map array sort 10 0         # map array - find atoms using indices
		                            # sort every 10

boundary        pp pp ff                    # periodic boundaries in x and y
                                            # fixed boundary in z

newton          off                         # forces between local and ghost
                                            # atoms are computed in each
					     # processor without communication

processors      * * 1                       # processor grid

comm_modify     vel yes                     # communicate velocities for ghost atoms

read_data       atom_ch.in	             # read atom.in file which defines domain size
Reading data file ...
  orthogonal box = (0 0 0) to (6e-05 6e-05 6e-05)
  4 by 4 by 1 MPI processor grid
  reading atoms ...
  150 atoms
  read_data CPU = 0.021 seconds
                                            # and initial atoms


#--------------------Microbes and Functional Groups-------------------------#

group           CROSS1   type 1               # assign type 1,2 atoms to CROSS group
50 atoms in group CROSS1
group           CROSS2   type 2
50 atoms in group CROSS2
group		CHEATER  type 3
50 atoms in group CHEATER
group           dead     type 4
0 atoms in group dead
group		EPS	 type 5
0 atoms in group EPS

neighbor        5e-7 bin                   # setting neighbour skin distance and style

neigh_modify    check yes                  # rebuild neighbour list if any atom
                                           # had moved more than half the skin distance


#--------------------------Mesh Grid and Substrates--------------------------#

# defining grid sytle, substrate names, and grid size
grid_style      nufeb/chemostat 3 sub metab1 metab2 5e-6

# set diffusion boundary conditions and initial concentrations (liquid:kg/m3)
grid_modify     set sub      pp pp nd  1.8e-4
No /omp style for force computation currently active
grid_modify     set metab1   pp pp nd  1e-4
No /omp style for force computation currently active
grid_modify     set metab2   pp pp nd  1e-4
No /omp style for force computation currently active


#--------------------------Biological Processes-------------------------------#

# heterotrophs growth
fix growth_cross1 CROSS1 nufeb/growth/cross1 sub 3.5e-5 metab2 4e-3 metab1 growth 0.009 yield 0.6 decay 2.6e-6 metab1_exp 20 epsyield 0.12 epsdens 30

fix growth_cross2 CROSS2 nufeb/growth/cross2 sub 3.5e-5 metab1 4e-3 metab2 growth 0.009 yield 0.6 decay 2.6e-6 metab2_exp 20 epsyield 0.12 epsdens 30

fix growth_cheater CHEATER nufeb/growth/cheater sub 3.5e-5 metab1 1e-3 metab2 1e-3 growth 0.009 yield 0.6 decay 2.6e-6

# heterotrophs division, division diameter: 1.36e-6
fix div1 CROSS1 nufeb/division/coccus 1.36e-6 1784
fix div2 CROSS2 nufeb/division/coccus 1.36e-6 6830
fix div3 CHEATER nufeb/division/coccus 1.36e-6 15238

fix death1 CROSS1 nufeb/death/diameter dead 5.43e-7
fix death2 CROSS2 nufeb/death/diameter dead 5.43e-7
fix death3 CHEATER nufeb/death/diameter dead 5.43e-7

# EPS secretion from heterotrophs
fix eps1 CROSS1 nufeb/eps_secretion 5 EPS 1.1 30 27008
fix eps2 CROSS2 nufeb/eps_secretion 5 EPS 1.1 30 42140

#---------------------------Physical Processes--------------------------------#

pair_style  gran/hooke/history 1e-4 NULL 1e-5 NULL 0.0 0    # pairwise interaction
pair_coeff  * *                                             # between atoms

# pairwise interaction between z-wall and atoms
fix wall all wall/gran hooke/history 1e-3 NULL 1e-4 NULL 0 0 zplane 0.0 1e-04

fix vis all viscous 1e-5                                    # viscous damping force

fix grav all gravity 9.81 vector 0.0 0.0 -1.0

fix nve all nve/limit 1e-7                                  # NVE integration with
                                                            # maximum distance limit


#---------------------------Post-Physical Processes---------------------------#

fix coeff_sub all nufeb/diffusion_coeff sub ratio 0.8       # defining diffusion coeff in the biofilm
fix coeff_metab1 all nufeb/diffusion_coeff metab1 ratio 0.8    # region is 80% of the value in liquid
fix coeff_metab2 all nufeb/diffusion_coeff metab2 ratio 0.8

#---------------------------Chemical Processes---------------------------------#

fix diff_sub all nufeb/diffusion_reaction sub 1e-9        # diffusion reaction for updating
fix diff_metab1 all nufeb/diffusion_reaction metab1 4e-9     # distribusion of substrate concentration
fix diff_metab2 all nufeb/diffusion_reaction metab2 4e-9

#--------------------------Computations and Outputs----------------------------#

variable mass equal "mass(all)"                             # total mass
variable ncross1 equal "count(CROSS1)"                      # total # of CROSS1
variable ncross2 equal "count(CROSS2)"                      # total # of CROSS2
variable ncheater equal "count(CHEATER)"
variable ndead equal "count(dead)"
variable neps equal "count(EPS)"

shell mkdir vtk_EPS_ch                                            # dump vtk files to /vtk folder
dump du1 all vtk 10 vtk_EPS_ch/dump*.vtu id type diameter         # require build NUFEB with vtk option
dump du2 all grid/vtk 10 vtk_EPS_ch/dump_%_*.vti con rea den gro

#dump du3 all movie 10 movie.avi type diameter view 80 60    # dump video
#dump_modify du3 acolor 1 blue acolor 2 lightgrey framerate 10


                                                            # dump hdf5 files to /hdf5 folder
#shell mkdir hdf5                                           # require build NUFEB with hdf5 option
#dump du3 all nufeb/hdf5 10 dump.h5 id type x y z vx vy vz fx fy fz radius conc reac

thermo_style custom step cpu atoms v_ncross1 v_ncross2 v_ncheater v_ndead v_neps v_mass     # screen and log outputs
thermo 1
thermo_modify   lost ignore

#-----------------------------------Run----------------------------------------#

# issue run command, define timesteps for physical (pairdt) and chemical (diffdt) processes
run_style nufeb diffdt 1e-4 difftol 1e-6 pairdt 1e-2 pairtol 1 pairmax 1000 diffmax 5000

timestep 12000                                               # define biological timesteps (1000s)

run 320                                                    # growing biofilm for 900x1000s
Generated 0 of 6 mixed pair_coeff terms from geometric mixing rule
Last active /omp style is pair_style gran/hooke/history/omp
Neighbor list info ...
  update every 1 steps, delay 10 steps, check yes
  max neighbors/atom: 2000, page size: 100000
  master list distance cutoff = 2.49e-06
  ghost atom cutoff = 2.49e-06
  binsize = 1.245e-06, bins = 49 49 49
  1 neighbor lists, perpetual/occasional/extra = 1 0 0
  (1) pair gran/hooke/history/omp, perpetual
      attributes: half, newton off, size, history, omp
      pair build: half/size/bin/newtoff/omp
      stencil: full/bin/3d
      bin: standard
Per MPI rank memory allocation (min/avg/max) = 11.02 | 11.02 | 11.02 Mbytes
   Step          CPU          Atoms      v_ncross1      v_ncross2      v_ncheater      v_ndead         v_neps         v_mass    
         0   0                    150   50             50             50             0              0              1.3295396e-13
         1   0.3840242            432   90             85             86             0              171            1.7271828e-13
         2   0.76846393           800   122            126            136            0              416            1.9569518e-13
         3   1.0794142           1127   131            144            178            0              674            2.1475414e-13
         4   1.3845174           1437   138            150            200            0              949            2.3242735e-13
         5   1.5835101           1755   141            158            218            0              1238           2.495574e-13 
         6   1.7480959           2063   144            165            234            0              1520           2.6602992e-13
         7   1.9120748           2422   155            182            247            0              1838           2.8227223e-13
         8   2.0686651           2767   165            187            266            0              2149           2.9814002e-13
         9   2.2178071           3130   172            193            285            0              2480           3.1391992e-13
        10   2.3629468           3503   177            201            309            0              2816           3.2943767e-13
        11   2.4792491           3895   181            215            325            0              3174           3.4465423e-13
        12   2.6100772           4266   186            219            334            0              3527           3.5937532e-13
        13   2.7232968           4666   193            227            353            0              3893           3.7376162e-13
        14   2.823857            5058   194            234            370            0              4260           3.877279e-13 
        15   2.9248726           5454   198            239            386            0              4631           4.0137128e-13
        16   3.0247951           5834   200            243            399            0              4992           4.1479568e-13
        17   3.1250245           6225   203            245            418            0              5359           4.2757731e-13
        18   3.2240481           6618   206            249            436            0              5727           4.4002554e-13
        19   3.3486903           7020   212            254            453            0              6101           4.5210876e-13
        20   3.4648666           7413   217            261            467            0              6468           4.6356052e-13
        21   3.5604069           7822   222            265            485            0              6850           4.7470761e-13
        22   3.6407382           8223   228            270            497            0              7228           4.8533283e-13
        23   3.7211493           8629   233            275            511            0              7610           4.9581937e-13
        24   3.7988818           9031   236            280            520            0              7995           5.059076e-13 
        25   3.8986653           9422   240            281            535            0              8366           5.1560881e-13
        26   3.9983489           9832   242            286            547            0              8757           5.252134e-13 
        27   4.0995149          10250   245            294            561            0              9150           5.3458612e-13
        28   4.1860715          10638   251            299            573            0              9515           5.4347222e-13
        29   4.2757             11050   252            300            583            0              9915           5.5210839e-13
        30   4.4488986          11440   254            303            597            0              10286          5.6040662e-13
        31   4.5484067          11837   258            306            610            0              10663          5.6815936e-13
        32   4.6863629          12245   259            308            617            0              11061          5.7592307e-13
        33   4.84502            12648   266            314            627            0              11441          5.8318178e-13
        34   4.9942669          13044   268            317            632            0              11827          5.8993764e-13
        35   5.1739941          13453   272            320            639            0              12222          5.9668023e-13
        36   5.3498572          13857   276            324            646            0              12611          6.0291257e-13
        37   5.5974742          14260   278            324            653            0              13005          6.0888499e-13
        38   5.8416648          14677   280            328            664            0              13405          6.1475377e-13
        39   6.3248349          15072   284            332            672            0              13784          6.2053973e-13
        40   6.7960226          15474   287            335            673            0              14179          6.2605901e-13
        41   7.3284969          15891   291            338            685            0              14577          6.3153666e-13
        42   7.8035926          16304   295            339            695            0              14975          6.3694717e-13
        43   8.7254252          16730   296            339            702            0              15393          6.4229905e-13
        44   9.6434764          17126   297            341            710            0              15778          6.4744411e-13
        45   10.587268          17531   297            342            721            0              16171          6.5286671e-13
        46   11.546134          17940   298            346            726            0              16570          6.587655e-13 
        47   12.516142          18361   301            349            739            0              16972          6.6476766e-13
        48   13.508234          18784   304            352            753            0              17375          6.7078175e-13
        49   14.518598          19204   306            354            761            0              17783          6.7707931e-13
        50   15.604883          19614   310            355            778            0              18171          6.8338637e-13
        51   16.69559           20036   310            357            793            0              18576          6.8992711e-13
        52   17.745567          20428   310            361            803            0              18954          6.9644228e-13
        53   18.818625          20866   312            363            818            0              19373          7.0312915e-13
        54   19.933936          21273   314            365            830            1              19763          7.0941515e-13
        55   21.051979          21692   315            367            838            1              20171          7.16024e-13  
        56   22.17368           22096   316            369            853            2              20556          7.2237328e-13
        57   23.309151          22524   316            369            868            2              20969          7.2865277e-13
        58   24.475548          22922   318            370            880            2              21352          7.3460398e-13
        59   25.646306          23338   321            371            896            3              21747          7.4051207e-13
        60   26.923517          23745   323            373            904            3              22142          7.4618942e-13
        61   28.160593          24171   323            376            918            3              22551          7.5171536e-13
        62   29.441188          24581   324            379            932            3              22943          7.5701821e-13
        63   30.762492          25010   326            381            943            5              23355          7.6253269e-13
        64   32.108277          25431   328            381            954            6              23762          7.681153e-13 
        65   33.491692          25842   328            383            965            7              24159          7.7383735e-13
        66   34.96854           26224   329            385            976            10             24524          7.7978758e-13
        67   36.44781           26667   331            387            985            12             24952          7.8651849e-13
        68   38.006589          27082   334            387            1009           13             25339          7.9341568e-13
        69   39.556219          27509   335            388            1023           16             25747          8.0117804e-13
        70   41.223256          27922   337            389            1041           18             26137          8.0912265e-13
        71   42.847179          28352   338            390            1058           22             26544          8.1759855e-13
        72   44.486727          28760   340            391            1075           26             26928          8.2606935e-13
        73   46.126819          29196   340            391            1092           32             27341          8.3496512e-13
        74   47.771782          29596   341            393            1107           40             27715          8.4367041e-13
        75   49.414786          30021   341            394            1129           47             28110          8.5234661e-13
        76   51.105071          30461   341            394            1151           51             28524          8.6085498e-13
        77   52.822218          30862   341            396            1172           53             28900          8.6891601e-13
        78   54.546442          31289   343            396            1193           57             29300          8.7704e-13   
        79   56.392413          31717   343            397            1199           69             29709          8.8507666e-13
        80   58.352439          32120   346            398            1215           79             30082          8.9372589e-13
        81   60.305263          32547   347            398            1238           85             30479          9.0253745e-13
        82   62.281242          32965   348            398            1260           93             30866          9.1203275e-13
        83   64.367115          33389   348            398            1286           98             31259          9.2226885e-13
        84   66.468277          33814   350            398            1317           106            31643          9.336469e-13 
        85   68.633066          34236   352            399            1345           113            32027          9.45999e-13  
        86   70.796513          34650   352            400            1378           119            32401          9.5927362e-13
        87   73.035416          35077   352            401            1408           126            32790          9.7337337e-13
        88   75.258566          35480   353            401            1447           135            33144          9.8828644e-13
        89   77.503381          35912   353            401            1488           147            33523          1.0038117e-12
        90   79.88073           36322   353            402            1523           153            33891          1.0193247e-12
        91   82.182545          36743   353            402            1564           164            34260          1.0352553e-12
        92   84.523347          37153   353            403            1611           170            34616          1.0513501e-12
        93   86.929186          37570   353            403            1655           181            34978          1.0675205e-12
        94   89.391512          37994   353            404            1705           190            35342          1.0840194e-12
        95   91.951861          38388   353            404            1746           199            35686          1.1009058e-12
        96   94.540987          38820   353            404            1804           209            36050          1.1185938e-12
        97   97.178724          39211   353            404            1847           222            36385          1.1368851e-12
        98   99.863183          39626   353            404            1886           234            36749          1.1566163e-12
        99   102.57617          40020   353            404            1954           241            37068          1.176988e-12 
       100   105.42475          40448   354            405            2025           251            37413          1.1980844e-12
       101   108.19989          40842   354            405            2078           260            37745          1.2198602e-12
       102   111.01813          41246   354            405            2157           264            38066          1.2417242e-12
       103   113.89757          41659   354            405            2221           271            38408          1.2640077e-12
       104   116.76791          42052   354            405            2290           280            38723          1.2863758e-12
       105   119.73079          42452   354            405            2358           290            39045          1.3086305e-12
       106   122.72168          42858   354            405            2428           299            39372          1.3311986e-12
       107   125.75426          43247   354            405            2492           307            39689          1.353927e-12 
       108   128.87711          43639   354            405            2568           316            39996          1.3767746e-12
       109   132.06594          44045   354            405            2634           325            40327          1.4002708e-12
       110   135.41892          44432   354            405            2721           335            40617          1.4240267e-12
       111   138.71839          44856   355            405            2799           344            40953          1.448352e-12 
       112   142.06635          45250   355            405            2893           352            41245          1.4730214e-12
       113   145.45258          45642   355            405            2971           360            41551          1.4981824e-12
       114   148.89045          46042   355            405            3057           366            41859          1.5235101e-12
       115   152.38705          46428   355            405            3142           374            42152          1.5488204e-12
       116   155.95107          46815   355            405            3222           382            42451          1.5740883e-12
       117   159.53991          47211   355            405            3308           389            42754          1.5995669e-12
       118   163.18622          47600   355            405            3404           398            43038          1.624242e-12 
       119   166.91558          47983   355            405            3470           409            43344          1.6486973e-12
       120   170.80277          48365   355            405            3560           423            43622          1.6731146e-12
       121   174.6689           48767   355            405            3658           430            43919          1.6974887e-12
       122   178.59231          49157   355            405            3740           439            44218          1.7218062e-12
       123   182.59506          49519   355            405            3820           446            44493          1.7459803e-12
       124   186.65677          49908   355            405            3907           459            44782          1.7711523e-12
       125   190.79353          50319   355            405            4003           473            45083          1.7968857e-12
       126   194.99133          50702   356            405            4100           486            45355          1.822994e-12 
       127   199.2439           51088   356            405            4188           499            45640          1.8492333e-12
       128   203.5489           51479   356            405            4286           510            45922          1.8757182e-12
       129   207.8926           51838   356            405            4366           529            46182          1.9018285e-12
       130   212.43177          52248   356            405            4453           547            46487          1.9276426e-12
       131   216.94206          52633   357            405            4555           559            46757          1.9533013e-12
       132   221.51599          52989   357            405            4626           577            47024          1.9796071e-12
       133   226.18499          53388   358            405            4710           602            47313          2.0058254e-12
       134   230.92671          53770   358            405            4800           627            47580          2.0328018e-12
       135   235.73696          54167   358            405            4906           647            47851          2.0607367e-12
       136   240.61102          54588   358            405            5002           682            48141          2.0895962e-12
       137   245.55535          54957   358            406            5082           721            48390          2.1192639e-12
       138   250.58698          55339   359            406            5166           755            48653          2.1493675e-12
       139   255.67417          55760   360            406            5267           783            48944          2.1795555e-12
       140   260.96662          56150   359            407            5374           808            49202          2.2091071e-12
       141   266.19416          56538   361            407            5459           844            49467          2.2382344e-12
       142   271.54789          56941   361            407            5555           873            49745          2.2670941e-12
       143   276.98065          57359   363            407            5655           911            50023          2.2964918e-12
       144   282.49022          57753   363            407            5766           951            50266          2.3263736e-12
       145   288.08447          58149   363            407            5867           978            50534          2.3569745e-12
       146   293.77023          58557   363            408            5980           1008           50798          2.3892457e-12
       147   299.53549          58985   365            409            6100           1049           51062          2.4225229e-12
       148   305.38505          59404   367            409            6200           1098           51330          2.4566259e-12
       149   311.34341          59811   366            409            6313           1140           51583          2.4913274e-12
       150   317.50609          60204   367            409            6411           1175           51842          2.5262919e-12
       151   323.63198          60658   367            409            6525           1223           52134          2.5613946e-12
       152   329.89568          61093   367            409            6640           1267           52410          2.5969585e-12
       153   336.21486          61507   368            409            6749           1317           52664          2.6322524e-12
       154   342.64838          61944   368            410            6858           1368           52940          2.6687101e-12
       155   349.16626          62411   368            412            6989           1417           53225          2.7078271e-12
       156   355.78827          62845   368            412            7129           1455           53481          2.748884e-12 
       157   362.51125          63297   368            412            7275           1489           53753          2.7922541e-12
       158   369.34498          63776   369            413            7425           1531           54038          2.8372476e-12
       159   376.28963          64242   370            414            7567           1588           54303          2.8832251e-12
       160   383.51431          64739   372            414            7739           1637           54577          2.930313e-12 
       161   390.70731          65225   371            414            7889           1689           54862          2.9770592e-12
       162   398.03684          65714   371            414            8043           1751           55135          3.0247778e-12
       163   405.40825          66210   369            415            8200           1808           55418          3.0747525e-12
       164   412.9031           66722   369            414            8373           1853           55713          3.1271549e-12
       165   420.53538          67242   369            413            8581           1894           55985          3.1832599e-12
       166   428.2857           67750   368            411            8776           1925           56270          3.2427216e-12
       167   436.16213          68265   368            411            8972           1965           56549          3.3063816e-12
       168   444.18572          68851   369            411            9217           2011           56843          3.3723898e-12
       169   452.37549          69392   369            410            9453           2060           57100          3.443843e-12 
       170   460.87611          69970   369            409            9691           2097           57404          3.5185441e-12
       171   469.31056          70575   369            409            9957           2147           57693          3.5974894e-12
       172   477.85966          71162   368            408            10195          2204           57987          3.6807101e-12
       173   486.57926          71782   368            407            10507          2253           58247          3.7693205e-12
       174   495.47744          72410   369            406            10798          2303           58534          3.8637201e-12
       175   504.52312          73062   368            406            11099          2369           58820          3.9680731e-12
       176   513.74919          73778   368            406            11468          2422           59114          4.0828002e-12
       177   523.19611          74495   368            406            11846          2485           59390          4.209945e-12 
       178   532.82345          75245   368            406            12245          2539           59687          4.3503411e-12
       179   542.62149          76035   367            406            12681          2593           59988          4.4925988e-12
       180   552.84724          76818   367            404            13151          2645           60251          4.6385115e-12
       181   563.18436          77573   367            403            13557          2700           60546          4.7827903e-12
       182   573.67015          78376   367            403            14007          2749           60850          4.9192433e-12
       183   584.35769          79170   367            402            14467          2798           61136          5.0726711e-12
       184   595.16195          79948   367            402            14895          2864           61420          5.2255184e-12
       185   606.15812          80815   367            402            15388          2950           61708          5.3806608e-12
       186   617.42613          81623   367            402            15831          3023           62000          5.530141e-12 
       187   628.87433          82470   367            401            16342          3070           62290          5.6730384e-12
       188   640.43797          83270   368            401            16778          3138           62585          5.8224474e-12
       189   652.19436          84114   368            399            17263          3208           62876          5.9795187e-12
       190   664.27022          84932   368            396            17714          3294           63160          6.1308148e-12
       191   676.31286          85831   367            396            18273          3364           63431          6.2981197e-12
       192   688.51679          86742   366            396            18801          3458           63721          6.4758732e-12
       193   700.82272          87666   366            396            19348          3567           63989          6.6529302e-12
       194   713.24             88599   366            395            19910          3669           64259          6.833693e-12 
       195   725.76698          89481   366            394            20431          3782           64508          7.001581e-12 
       196   738.39514          90428   366            394            20995          3895           64778          7.1935494e-12
       197   751.12395          91316   366            393            21514          4024           65019          7.3768731e-12
       198   763.98879          92330   366            393            22133          4140           65298          7.573664e-12 
       199   776.95034          93299   366            393            22781          4253           65506          7.7796517e-12
       200   790.2265           94295   366            393            23381          4397           65758          7.9754732e-12
       201   803.33795          95266   365            393            23992          4535           65981          8.2013305e-12
       202   816.56384          96195   365            393            24559          4690           66188          8.3879303e-12
       203   829.83453          97183   365            392            25180          4866           66380          8.6017922e-12
       204   843.21886          98240   364            390            25861          5024           66601          8.8074939e-12
       205   856.68804          99224   362            390            26496          5191           66785          9.0185987e-12
       206   870.25425         100180   361            388            27093          5371           66967          9.2207516e-12
       207   883.91237         101126   360            387            27692          5567           67120          9.4286703e-12
       208   897.67781         102081   360            385            28299          5772           67265          9.6471842e-12
       209   911.52314         103043   360            381            28916          5974           67412          9.8499018e-12
       210   925.7158          104026   356            380            29562          6166           67562          1.0047861e-11
       211   939.76771         105047   355            380            30207          6411           67694          1.0268113e-11
       212   953.89853         105965   355            377            30776          6642           67815          1.0465044e-11
       213   968.10373         106782   355            375            31233          6897           67922          1.0613178e-11
       214   982.41464         107730   354            369            31825          7155           68027          1.0795953e-11
       215   996.83118         108553   350            365            32248          7467           68123          1.0945912e-11
       216   1011.3193         109329   347            359            32655          7753           68215          1.1105963e-11
       217   1025.8962         110182   344            352            33123          8061           68302          1.1240469e-11
       218   1040.5367         110956   343            343            33536          8341           68393          1.1343202e-11
       219   1055.2662         111690   341            334            33924          8620           68471          1.145684e-11 
       220   1070.2975         112322   336            330            34221          8898           68537          1.1566934e-11
       221   1085.1777         113039   331            322            34614          9180           68592          1.1650955e-11
       222   1100.144          113723   329            318            34999          9424           68653          1.1734461e-11
       223   1115.1866         114457   327            313            35469          9643           68705          1.1825213e-11
       224   1130.3183         115016   320            305            35757          9878           68756          1.1871754e-11
       225   1145.5001         115653   316            301            36128          10098          68810          1.1930606e-11
       226   1160.751          116208   311            292            36473          10274          68858          1.1979865e-11
       227   1176.0785         116838   309            278            36886          10460          68905          1.2040203e-11
       228   1191.442          117416   303            274            37255          10639          68945          1.206978e-11 
       229   1206.8839         117960   299            267            37585          10814          68995          1.2101112e-11
       230   1222.6267         118455   292            259            37863          11006          69035          1.2124194e-11
       231   1238.1985         118966   281            253            38129          11229          69074          1.2141482e-11
       232   1253.8408         119492   273            248            38403          11455          69113          1.2162775e-11
       233   1269.5036         120080   258            238            38695          11733          69156          1.2190019e-11
       234   1285.2092         120567   245            232            38866          12034          69190          1.221215e-11 
       235   1300.9048         120987   240            219            38985          12323          69220          1.221181e-11 
       236   1316.7836         121529   233            210            39198          12638          69250          1.2204376e-11
       237   1332.7485         121975   228            196            39268          12999          69284          1.2217703e-11
       238   1348.817          122432   220            188            39341          13346          69337          1.2207557e-11
       239   1364.9616         122863   214            181            39412          13684          69372          1.2190882e-11
       240   1381.4113         123245   204            174            39412          14041          69414          1.2177591e-11
       241   1397.6541         123718   198            169            39474          14423          69454          1.2182623e-11
       242   1413.9729         124138   190            159            39533          14766          69490          1.2178679e-11
       243   1430.3663         124579   182            156            39574          15143          69524          1.2157501e-11
       244   1446.7647         125039   175            151            39686          15474          69553          1.2180702e-11
       245   1463.2474         125497   169            142            39804          15792          69590          1.218667e-11 
       246   1479.8177         125834   164            136            39801          16112          69621          1.2155581e-11
       247   1496.4241         126306   159            132            39958          16393          69664          1.2145012e-11
       248   1513.1146         126723   154            128            40043          16690          69708          1.2127644e-11
       249   1529.8687         127132   149            124            40114          16991          69754          1.2125934e-11
       250   1546.9553         127483   143            119            40119          17305          69797          1.2115094e-11
       251   1563.8201         127893   139            112            40231          17583          69828          1.2113788e-11
       252   1580.7651         128391   134            110            40422          17863          69862          1.2111037e-11
       253   1597.7888         128760   128            106            40475          18156          69895          1.209804e-11 
       254   1614.8241         129173   118            100            40567          18459          69929          1.2089452e-11
       255   1631.9666         129533   108            97             40570          18784          69974          1.208637e-11 
       256   1649.1325         129913   108            94             40647          19050          70014          1.2085541e-11
       257   1666.3255         130389   107            91             40773          19370          70048          1.2086356e-11
       258   1683.5995         130744   103            86             40769          19702          70084          1.2077962e-11
       259   1700.9198         131204   99             86             40852          20044          70123          1.2099658e-11
       260   1718.5497         131581   94             80             40838          20412          70157          1.2074586e-11
       261   1735.9319         131953   94             74             40822          20760          70203          1.2077447e-11
       262   1753.4434         132331   91             70             40813          21116          70241          1.2066936e-11
       263   1771.0046         132727   88             66             40861          21440          70272          1.207285e-11 
       264   1788.6521         133177   86             64             40898          21818          70311          1.2080547e-11
       265   1806.3973         133569   82             64             40853          22218          70352          1.2083493e-11
       266   1824.0806         133846   79             60             40729          22595          70383          1.2054965e-11
       267   1841.8576         134241   75             57             40627          23062          70420          1.2052366e-11
       268   1859.729          134686   74             54             40644          23459          70455          1.2053298e-11
       269   1877.6044         135018   69             52             40540          23866          70491          1.2066706e-11
       270   1895.8016         135385   66             52             40419          24324          70524          1.2043859e-11
       271   1913.8599         135728   64             51             40265          24786          70562          1.2026211e-11
       272   1932              136105   62             47             40164          25238          70594          1.2033427e-11
       273   1950.1579         136452   60             46             39998          25723          70625          1.2040057e-11
       274   1968.3836         136871   58             42             39924          26184          70663          1.2059702e-11
       275   1986.6727         137205   57             38             39785          26630          70695          1.2069143e-11
       276   2004.9993         137602   56             38             39694          27088          70726          1.2051718e-11
       277   2023.4492         138002   54             36             39573          27579          70760          1.2051098e-11
       278   2041.9467         138301   53             34             39339          28081          70794          1.2055701e-11
       279   2060.5012         138651   53             32             39151          28588          70827          1.206094e-11 
       280   2079.3305         139002   53             32             38982          29080          70855          1.2087106e-11
       281   2097.9339         139394   51             31             38870          29551          70891          1.2086281e-11
       282   2116.6231         139736   48             29             38672          30064          70923          1.2095217e-11
       283   2135.3288         140086   45             29             38514          30554          70944          1.2108233e-11
       284   2154.2105         140552   45             28             38475          31019          70985          1.2101872e-11
       285   2173.0868         140814   45             28             38216          31519          71006          1.2100741e-11
       286   2191.9546         141135   45             28             38012          32010          71040          1.2114581e-11
       287   2210.9362         141478   44             28             37807          32529          71070          1.2112333e-11
       288   2229.9178         141842   43             27             37708          32963          71101          1.2137133e-11
       289   2249.0036         142198   43             27             37597          33399          71132          1.2145436e-11
       290   2268.5623         142607   42             27             37526          33851          71161          1.2170672e-11
       291   2287.774          142935   42             27             37392          34283          71191          1.2165707e-11
       292   2307.0175         143319   39             27             37337          34695          71221          1.2181978e-11
       293   2326.3387         143595   35             27             37191          35092          71250          1.2190879e-11
       294   2345.7097         143981   34             27             37152          35491          71277          1.2216396e-11
       295   2365.1784         144293   33             27             37038          35887          71308          1.2220792e-11
       296   2384.7073         144682   33             27             36987          36299          71336          1.2234722e-11
       297   2404.3007         145050   32             26             36948          36680          71364          1.225167e-11 
       298   2423.9207         145354   32             26             36848          37054          71394          1.2259216e-11
       299   2443.5091         145684   32             26             36813          37393          71420          1.2253668e-11
       300   2463.6384         145957   32             25             36666          37783          71451          1.2257483e-11
       301   2483.5987         146321   31             24             36664          38125          71477          1.2283096e-11
       302   2503.5297         146712   31             23             36643          38508          71507          1.2281479e-11
       303   2523.5052         146983   31             23             36547          38849          71533          1.2284068e-11
       304   2543.4624         147340   31             23             36520          39202          71564          1.2302424e-11
       305   2563.6184         147600   31             22             36394          39567          71586          1.2291948e-11
       306   2583.784          147910   31             22             36337          39902          71618          1.2307232e-11
       307   2603.8703         148288   31             22             36367          40227          71641          1.2303301e-11
       308   2624.1522         148584   31             22             36277          40582          71672          1.2312816e-11
       309   2644.3915         148979   31             22             36290          40940          71696          1.2321677e-11
       310   2665.0209         149255   31             22             36180          41297          71725          1.2353934e-11
       311   2685.548          149590   29             22             36156          41630          71753          1.2358031e-11
       312   2706.2351         149961   28             22             36167          41967          71777          1.2374497e-11
       313   2726.8889         150294   28             21             36151          42290          71804          1.2374832e-11
       314   2747.5281         150682   28             21             36182          42623          71828          1.2401483e-11
       315   2768.2728         150968   28             21             36126          42938          71855          1.2416466e-11
       316   2788.995          151245   28             21             36049          43265          71882          1.2421399e-11
       317   2809.953          151571   28             20             35997          43620          71906          1.2437915e-11
       318   2831.0714         151923   28             20             36011          43934          71930          1.2421267e-11
       319   2852.0072         152228   28             20             36008          44213          71959          1.2418894e-11
       320   2873.3553         152539   28             20             35960          44547          71984          1.2448963e-11
Loop time of 2873.36 on 16 procs for 320 steps with 152539 atoms

98.0% CPU use with 16 MPI tasks x 1 OpenMP threads

MPI task timing breakdown:
Section |  min time  |  avg time  |  max time  |%varavg| %total
---------------------------------------------------------------
Pair    | 766.73     | 844.98     | 1052.2     | 265.6 | 29.41
Neigh   | 508.06     | 598.12     | 882.19     | 443.3 | 20.82
Comm    | 318.67     | 384.69     | 454.77     | 224.8 | 13.39
Output  | 5.8847     | 5.8849     | 5.886      |   0.0 |  0.20
Modify  | 465.71     | 1025.7     | 1241.2     | 668.3 | 35.70
Other   |            | 13.96      |            |       |  0.49

Nlocal:        9533.69 ave       14025 max        8173 min
Histogram: 10 2 0 2 0 0 0 0 0 2
Nghost:           7381 ave        9624 max        6327 min
Histogram: 6 3 1 2 0 0 1 1 0 2
Neighs:        94208.8 ave      109918 max       87089 min
Histogram: 2 6 2 1 2 1 0 1 0 1

Total # of neighbors = 1507341
Ave neighs/atom = 9.8816762
Neighbor list builds = 28188
Dangerous builds = 27868

Total wall time: 0:48:32
