LAMMPS (23 Jun 2022 - Update 4)
  using 1 OpenMP thread(s) per MPI task
package omp 0
using multi-threaded neighbor list subroutines
#-----------------------------------------------------------------------------#
#                NUFEB Simulation: Heterotrophic Biofilm Growth               #
#-----------------------------------------------------------------------------#


#-----------------------------System Settings---------------------------------#

units si                                    # using si units (m, s, kg)
atom_style      coccus                      # using nufeb coccus atom style
atom_modify     map array sort 10 0         # map array - find atoms using indices
		                            # sort every 10

boundary        pp pp ff                    # periodic boundaries in x and y
                                            # fixed boundary in z

newton          off                         # forces between local and ghost
                                            # atoms are computed in each
					     # processor without communication

processors      * * 1                       # processor grid

comm_modify     vel yes                     # communicate velocities for ghost atoms

read_data       atom_ch.in	             # read atom.in file which defines domain size
Reading data file ...
  orthogonal box = (0 0 0) to (6e-05 6e-05 6e-05)
  4 by 4 by 1 MPI processor grid
  reading atoms ...
  150 atoms
  read_data CPU = 0.023 seconds
                                            # and initial atoms


#--------------------Microbes and Functional Groups-------------------------#

group           CROSS1   type 1               # assign type 1,2 atoms to CROSS group
50 atoms in group CROSS1
group           CROSS2   type 2
50 atoms in group CROSS2
group		CHEATER  type 3
50 atoms in group CHEATER
group           dead     type 4
0 atoms in group dead
group		EPS	 type 5
0 atoms in group EPS

neighbor        5e-7 bin                   # setting neighbour skin distance and style

neigh_modify    check yes                  # rebuild neighbour list if any atom
                                           # had moved more than half the skin distance


#--------------------------Mesh Grid and Substrates--------------------------#

# defining grid sytle, substrate names, and grid size
grid_style      nufeb/chemostat 3 sub metab1 metab2 5e-6

# set diffusion boundary conditions and initial concentrations (liquid:kg/m3)
grid_modify     set sub      pp pp nd  1.8e-4
No /omp style for force computation currently active
grid_modify     set metab1   pp pp nd  1e-4
No /omp style for force computation currently active
grid_modify     set metab2   pp pp nd  1e-4
No /omp style for force computation currently active


#--------------------------Biological Processes-------------------------------#

# heterotrophs growth
fix growth_cross1 CROSS1 nufeb/growth/cross1 sub 3.5e-5 metab2 4e-3 metab1 growth 0.009 yield 0.6 decay 2.6e-6 metab1_exp 20 epsyield 0.12 epsdens 30

fix growth_cross2 CROSS2 nufeb/growth/cross2 sub 3.5e-5 metab1 4e-3 metab2 growth 0.009 yield 0.6 decay 2.6e-6 metab2_exp 20 epsyield 0.12 epsdens 30

fix growth_cheater CHEATER nufeb/growth/cheater sub 3.5e-5 metab1 1e-3 metab2 1e-3 growth 0.009 yield 0.6 decay 2.6e-6

# heterotrophs division, division diameter: 1.36e-6
fix div1 CROSS1 nufeb/division/coccus 1.36e-6 2407
fix div2 CROSS2 nufeb/division/coccus 1.36e-6 9322
fix div3 CHEATER nufeb/division/coccus 1.36e-6 20845

fix death1 CROSS1 nufeb/death/diameter dead 5.43e-7
fix death2 CROSS2 nufeb/death/diameter dead 5.43e-7
fix death3 CHEATER nufeb/death/diameter dead 5.43e-7

# EPS secretion from heterotrophs
fix eps1 CROSS1 nufeb/eps_secretion 5 EPS 1.1 30 36976
fix eps2 CROSS2 nufeb/eps_secretion 5 EPS 1.1 30 57715

#---------------------------Physical Processes--------------------------------#

pair_style  gran/hooke/history 1e-4 NULL 1e-5 NULL 0.0 0    # pairwise interaction
pair_coeff  * *                                             # between atoms

# pairwise interaction between z-wall and atoms
fix wall all wall/gran hooke/history 1e-3 NULL 1e-4 NULL 0 0 zplane 0.0 1e-04

fix vis all viscous 1e-5                                    # viscous damping force

fix grav all gravity 9.81 vector 0.0 0.0 -1.0

fix nve all nve/limit 1e-7                                  # NVE integration with
                                                            # maximum distance limit


#---------------------------Post-Physical Processes---------------------------#

fix coeff_sub all nufeb/diffusion_coeff sub ratio 0.8       # defining diffusion coeff in the biofilm
fix coeff_metab1 all nufeb/diffusion_coeff metab1 ratio 0.8    # region is 80% of the value in liquid
fix coeff_metab2 all nufeb/diffusion_coeff metab2 ratio 0.8

#---------------------------Chemical Processes---------------------------------#

fix diff_sub all nufeb/diffusion_reaction sub 1e-9        # diffusion reaction for updating
fix diff_metab1 all nufeb/diffusion_reaction metab1 4e-9     # distribusion of substrate concentration
fix diff_metab2 all nufeb/diffusion_reaction metab2 4e-9

#--------------------------Computations and Outputs----------------------------#

variable mass equal "mass(all)"                             # total mass
variable ncross1 equal "count(CROSS1)"                      # total # of CROSS1
variable ncross2 equal "count(CROSS2)"                      # total # of CROSS2
variable ncheater equal "count(CHEATER)"
variable ndead equal "count(dead)"
variable neps equal "count(EPS)"

shell mkdir vtk_EPS_ch                                            # dump vtk files to /vtk folder
dump du1 all vtk 10 vtk_EPS_ch/dump*.vtu id type diameter         # require build NUFEB with vtk option
dump du2 all grid/vtk 10 vtk_EPS_ch/dump_%_*.vti con rea den gro

#dump du3 all movie 10 movie.avi type diameter view 80 60    # dump video
#dump_modify du3 acolor 1 blue acolor 2 lightgrey framerate 10


                                                            # dump hdf5 files to /hdf5 folder
#shell mkdir hdf5                                           # require build NUFEB with hdf5 option
#dump du3 all nufeb/hdf5 10 dump.h5 id type x y z vx vy vz fx fy fz radius conc reac

thermo_style custom step cpu atoms v_ncross1 v_ncross2 v_ncheater v_ndead v_neps v_mass     # screen and log outputs
thermo 1
thermo_modify   lost ignore

#-----------------------------------Run----------------------------------------#

# issue run command, define timesteps for physical (pairdt) and chemical (diffdt) processes
run_style nufeb diffdt 1e-4 difftol 1e-6 pairdt 1e-2 pairtol 1 pairmax 1000 diffmax 5000

timestep 12000                                               # define biological timesteps (1000s)

run 320                                                    # growing biofilm for 900x1000s
Generated 0 of 6 mixed pair_coeff terms from geometric mixing rule
Last active /omp style is pair_style gran/hooke/history/omp
Neighbor list info ...
  update every 1 steps, delay 10 steps, check yes
  max neighbors/atom: 2000, page size: 100000
  master list distance cutoff = 2.49e-06
  ghost atom cutoff = 2.49e-06
  binsize = 1.245e-06, bins = 49 49 49
  1 neighbor lists, perpetual/occasional/extra = 1 0 0
  (1) pair gran/hooke/history/omp, perpetual
      attributes: half, newton off, size, history, omp
      pair build: half/size/bin/newtoff/omp
      stencil: full/bin/3d
      bin: standard
Per MPI rank memory allocation (min/avg/max) = 11.02 | 11.02 | 11.02 Mbytes
   Step          CPU          Atoms      v_ncross1      v_ncross2      v_ncheater      v_ndead         v_neps         v_mass    
         0   0                    150   50             50             50             0              0              1.3295396e-13
         1   0.38253076           432   90             85             86             0              171            1.727417e-13 
         2   0.76521881           800   119            129            136            0              416            1.9569036e-13
         3   1.0878078           1127   129            144            183            0              671            2.1464401e-13
         4   1.4067084           1428   137            149            199            0              943            2.3239381e-13
         5   1.6518844           1751   144            158            218            0              1231           2.4998964e-13
         6   1.8241327           2080   153            166            235            0              1526           2.6702051e-13
         7   1.9721988           2408   155            172            250            0              1831           2.8387842e-13
         8   2.1190059           2757   163            184            270            0              2140           3.0063788e-13
         9   2.2933639           3142   170            202            292            0              2478           3.1719441e-13
        10   10.551323           3517   175            208            314            0              2820           3.3332085e-13
        11   10.670541           3892   177            218            332            0              3165           3.48854e-13  
        12   10.790549           4278   184            222            352            0              3520           3.6414286e-13
        13   10.901852           4663   188            226            366            0              3883           3.7907776e-13
        14   11.009763           5049   193            235            382            0              4239           3.9359658e-13
        15   11.092181           5441   197            239            404            0              4601           4.0786436e-13
        16   11.183496           5829   201            243            420            0              4965           4.2158771e-13
        17   11.277613           6224   205            246            439            0              5334           4.3499633e-13
        18   11.392165           6606   210            249            460            0              5687           4.4797868e-13
        19   11.475018           6993   213            253            478            0              6049           4.6051761e-13
        20   11.601594           7389   220            259            490            0              6420           4.7271571e-13
        21   11.688529           7781   224            265            507            0              6785           4.8389318e-13
        22   11.77514            8171   226            270            520            0              7155           4.9491195e-13
        23   11.850014           8559   230            276            535            0              7518           5.0532128e-13
        24   11.94116            8982   237            281            548            0              7916           5.1551836e-13
        25   12.040772           9383   243            286            564            0              8290           5.2518265e-13
        26   12.116              9797   245            292            577            0              8683           5.3496576e-13
        27   12.234222          10188   252            297            588            0              9051           5.4426242e-13
        28   12.314814          10614   256            298            604            0              9456           5.536037e-13 
        29   12.41921           11008   257            301            614            0              9836           5.6258286e-13
        30   12.604712          11407   259            302            624            0              10222          5.7128464e-13
        31   12.742849          11821   264            305            631            0              10621          5.79639e-13  
        32   12.883379          12215   267            307            644            0              10997          5.8755758e-13
        33   13.035448          12620   270            309            659            0              11382          5.9535078e-13
        34   13.193811          13022   274            311            667            0              11770          6.0285848e-13
        35   13.35697           13444   281            312            679            0              12172          6.1036509e-13
        36   13.500971          13836   284            312            687            0              12553          6.1736241e-13
        37   13.750819          14247   285            313            701            0              12948          6.24165e-13  
        38   14.04588           14647   286            315            713            0              13333          6.3066791e-13
        39   14.372426          15037   289            319            719            0              13710          6.3697372e-13
        40   14.896056          15452   291            321            729            0              14111          6.4335867e-13
        41   15.339819          15852   294            322            739            0              14497          6.4931633e-13
        42   16.175498          16247   296            323            746            0              14882          6.5510378e-13
        43   16.848138          16647   300            325            758            0              15264          6.6089834e-13
        44   17.531657          17052   304            326            769            0              15653          6.6646698e-13
        45   18.46871           17449   306            329            779            0              16035          6.7225367e-13
        46   19.417259          17867   308            331            790            0              16438          6.7829262e-13
        47   20.400459          18269   309            333            801            0              16826          6.8447566e-13
        48   21.384467          18683   309            335            820            0              17219          6.9096295e-13
        49   22.377201          19077   310            336            830            0              17601          6.9746428e-13
        50   23.465472          19497   314            336            841            0              18006          7.0383035e-13
        51   24.483396          19883   318            336            862            0              18367          7.1053217e-13
        52   25.529075          20314   323            340            872            0              18779          7.1711458e-13
        53   26.580295          20714   324            343            890            0              19157          7.2359733e-13
        54   27.657775          21162   328            347            905            0              19582          7.2971857e-13
        55   28.744021          21548   329            349            918            0              19952          7.3602952e-13
        56   29.856791          21977   331            352            929            1              20364          7.4203814e-13
        57   30.969419          22388   334            352            949            1              20752          7.478007e-13 
        58   32.142269          22812   335            353            955            1              21168          7.5349264e-13
        59   33.345164          23216   336            354            968            1              21557          7.5912927e-13
        60   34.599986          23650   341            354            982            1              21972          7.6511973e-13
        61   35.865635          24068   343            354            1006           1              22364          7.7063288e-13
        62   37.152719          24501   345            355            1020           2              22779          7.7643484e-13
        63   38.465133          24899   346            355            1033           3              23162          7.8241552e-13
        64   39.866137          25332   349            358            1044           6              23575          7.8852329e-13
        65   41.312672          25741   351            358            1057           8              23967          7.9540837e-13
        66   42.754879          26172   352            360            1077           11             24372          8.027568e-13 
        67   44.193587          26590   354            362            1096           13             24765          8.1066184e-13
        68   45.674903          27032   356            364            1118           16             25178          8.1858876e-13
        69   47.173961          27434   357            364            1132           19             25562          8.266993e-13 
        70   48.789089          27860   357            367            1156           22             25958          8.3503388e-13
        71   50.371738          28281   357            367            1173           27             26357          8.4388987e-13
        72   51.96361           28701   359            370            1202           31             26739          8.5267435e-13
        73   53.584656          29127   360            371            1219           36             27141          8.6198793e-13
        74   55.204114          29533   364            372            1238           42             27517          8.7138997e-13
        75   56.82716           29984   364            374            1261           51             27934          8.8105445e-13
        76   58.515916          30390   365            375            1291           55             28304          8.9040301e-13
        77   60.215424          30828   366            376            1306           65             28715          9.0038171e-13
        78   61.98145           31246   366            377            1330           70             29103          9.1018437e-13
        79   63.803704          31686   368            378            1357           83             29500          9.204267e-13 
        80   65.765964          32095   369            379            1386           88             29873          9.3097905e-13
        81   67.730444          32536   370            380            1411           95             30280          9.4235594e-13
        82   69.711396          32938   371            380            1438           104            30645          9.5455166e-13
        83   71.704327          33379   372            382            1471           113            31041          9.675354e-13 
        84   73.727141          33781   373            382            1497           122            31407          9.8077553e-13
        85   75.787541          34212   373            382            1535           128            31794          9.9468181e-13
        86   77.83791           34639   373            383            1568           139            32176          1.0090278e-12
        87   79.92792           35071   373            384            1605           153            32556          1.0233873e-12
        88   82.011333          35475   374            384            1634           169            32914          1.0378824e-12
        89   84.166333          35918   375            384            1671           178            33310          1.0522953e-12
        90   86.417558          36319   375            384            1712           192            33656          1.0668125e-12
        91   88.63516           36755   375            385            1741           208            34046          1.0817536e-12
        92   90.875649          37157   375            386            1773           225            34398          1.0966319e-12
        93   93.253885          37598   376            386            1818           239            34779          1.1116681e-12
        94   95.721875          37991   376            386            1865           246            35118          1.1274667e-12
        95   98.272312          38422   376            387            1908           257            35494          1.1445497e-12
        96   100.87203          38828   376            387            1962           266            35837          1.1634479e-12
        97   103.5201           39266   376            387            2030           271            36202          1.1838956e-12
        98   106.20335          39663   376            387            2093           272            36535          1.20505e-12  
        99   108.90412          40081   376            387            2160           282            36876          1.2271427e-12
       100   111.72236          40493   376            388            2225           292            37212          1.249713e-12 
       101   114.47157          40896   378            388            2292           296            37542          1.2724328e-12
       102   117.23059          41338   378            388            2374           304            37894          1.2954319e-12
       103   120.02345          41738   378            388            2440           313            38219          1.3180781e-12
       104   122.86284          42150   378            388            2517           323            38544          1.3407048e-12
       105   125.77098          42550   378            388            2591           325            38868          1.3633787e-12
       106   128.72804          42945   378            388            2655           343            39181          1.3860136e-12
       107   131.74516          43360   378            388            2736           352            39506          1.4090416e-12
       108   134.81698          43791   378            388            2840           358            39827          1.4325094e-12
       109   137.92812          44187   378            388            2921           363            40137          1.4563485e-12
       110   141.19848          44613   379            388            3004           376            40466          1.4807463e-12
       111   144.37255          44988   379            388            3081           380            40760          1.5054285e-12
       112   147.58991          45394   379            389            3167           388            41071          1.5302016e-12
       113   150.87435          45821   379            389            3251           403            41399          1.5550844e-12
       114   154.19576          46200   379            389            3342           410            41680          1.5795191e-12
       115   157.48909          46608   379            389            3429           422            41989          1.6038185e-12
       116   160.89813          46996   379            390            3507           432            42288          1.6272555e-12
       117   164.31674          47409   379            391            3592           449            42598          1.6508229e-12
       118   167.81279          47777   379            391            3658           460            42889          1.6737583e-12
       119   171.40607          48194   379            391            3753           473            43198          1.6967249e-12
       120   175.17336          48594   379            392            3830           486            43507          1.720111e-12 
       121   178.85028          48983   379            393            3924           497            43790          1.7449045e-12
       122   182.59896          49399   379            393            4008           511            44108          1.769709e-12 
       123   186.40666          49770   379            393            4093           521            44384          1.7950103e-12
       124   190.25935          50192   379            394            4182           536            44701          1.8212616e-12
       125   194.17425          50577   379            395            4265           559            44979          1.8478591e-12
       126   198.12597          50959   379            395            4348           586            45251          1.8745878e-12
       127   202.1313           51369   379            396            4428           608            45558          1.9012743e-12
       128   206.19306          51767   379            396            4519           625            45848          1.9278127e-12
       129   210.3109           52151   379            396            4596           659            46121          1.9543341e-12
       130   214.60066          52548   379            396            4675           686            46412          1.9806662e-12
       131   218.77957          52986   379            397            4785           706            46719          2.0072286e-12
       132   223.05169          53388   379            397            4882           724            47006          2.0331551e-12
       133   227.39663          53782   379            397            4963           757            47286          2.0596269e-12
       134   231.77793          54216   379            397            5052           794            47594          2.0872994e-12
       135   236.21824          54600   379            398            5144           823            47856          2.1155819e-12
       136   240.68136          55035   379            399            5241           855            48161          2.1449768e-12
       137   245.19001          55448   379            400            5358           882            48429          2.175736e-12 
       138   249.73549          55855   379            401            5474           909            48692          2.2071914e-12
       139   254.34365          56262   380            401            5585           924            48972          2.2391053e-12
       140   259.16461          56689   381            400            5696           963            49249          2.2713643e-12
       141   263.92148          57120   382            400            5798           1003           49537          2.3040713e-12
       142   268.72129          57529   382            400            5922           1027           49798          2.3361258e-12
       143   273.57433          57932   381            400            6003           1068           50080          2.3679758e-12
       144   278.49788          58343   381            400            6114           1111           50337          2.3996158e-12
       145   283.4774           58756   383            401            6213           1151           50608          2.4314164e-12
       146   288.51826          59187   383            402            6323           1190           50889          2.4636911e-12
       147   293.62951          59592   383            402            6427           1237           51143          2.4956857e-12
       148   298.79135          60023   385            402            6524           1284           51428          2.5288219e-12
       149   304.03676          60444   387            402            6632           1330           51693          2.5630919e-12
       150   309.65022          60865   387            402            6756           1373           51947          2.5984474e-12
       151   315.00948          61315   388            402            6893           1416           52216          2.6353582e-12
       152   320.43568          61739   388            402            7017           1451           52481          2.6732306e-12
       153   325.92553          62174   389            402            7148           1492           52743          2.7120459e-12
       154   331.47964          62621   389            402            7287           1541           53002          2.7505171e-12
       155   337.11873          63048   390            403            7403           1576           53276          2.7895498e-12
       156   342.83543          63495   390            403            7525           1646           53531          2.828426e-12 
       157   348.59089          63952   391            403            7664           1695           53799          2.8680507e-12
       158   354.40737          64391   391            403            7778           1756           54063          2.9086357e-12
       159   360.3277           64853   390            403            7921           1803           54336          2.9497884e-12
       160   366.43628          65326   391            404            8087           1851           54593          2.992175e-12 
       161   372.48441          65809   391            405            8252           1909           54852          3.0366545e-12
       162   378.5972           66263   391            404            8394           1967           55107          3.0826664e-12
       163   384.74881          66773   391            403            8544           2030           55405          3.1306331e-12
       164   390.96569          67237   391            403            8714           2086           55643          3.1791596e-12
       165   397.26994          67727   391            403            8888           2145           55900          3.2293205e-12
       166   403.67821          68224   391            404            9052           2209           56168          3.2799103e-12
       167   410.1661           68702   391            404            9213           2266           56428          3.3319653e-12
       168   416.7442           69216   391            403            9413           2315           56694          3.384959e-12 
       169   423.41367          69717   391            402            9597           2383           56944          3.4388576e-12
       170   430.33617          70241   391            402            9773           2452           57223          3.4936039e-12
       171   437.13157          70743   391            402            9979           2501           57470          3.549926e-12 
       172   444.05836          71282   391            402            10205          2551           57733          3.6091171e-12
       173   451.03286          71828   391            402            10414          2614           58007          3.6709657e-12
       174   458.08304          72369   391            402            10630          2680           58266          3.7366231e-12
       175   465.24171          72896   391            401            10852          2736           58516          3.8054874e-12
       176   472.49805          73450   391            400            11072          2803           58784          3.8777022e-12
       177   479.8725           74071   391            399            11341          2876           59064          3.9538074e-12
       178   487.33564          74632   391            397            11588          2943           59313          4.0320039e-12
       179   494.8602           75206   391            395            11855          3004           59561          4.1127865e-12
       180   502.69074          75840   391            395            12127          3076           59851          4.1965394e-12
       181   510.47439          76450   391            395            12423          3131           60110          4.2854286e-12
       182   518.37264          77087   391            395            12757          3188           60356          4.3812054e-12
       183   526.39564          77747   391            393            13099          3243           60621          4.4857127e-12
       184   534.5103           78463   390            393            13469          3303           60908          4.6011794e-12
       185   542.79291          79175   390            393            13862          3373           61157          4.7277201e-12
       186   551.19399          79907   390            390            14273          3447           61407          4.8639925e-12
       187   559.75811          80667   389            389            14689          3517           61683          5.0092304e-12
       188   568.43412          81448   389            387            15171          3570           61931          5.1638316e-12
       189   577.27771          82283   388            387            15672          3641           62195          5.3187001e-12
       190   586.43039          83079   388            385            16149          3707           62450          5.47424e-12  
       191   595.52148          83868   387            384            16604          3777           62716          5.6208267e-12
       192   604.76423          84658   385            383            17064          3870           62956          5.7637382e-12
       193   614.17199          85473   385            382            17532          3950           63224          5.9128475e-12
       194   623.72726          86312   384            381            18028          4048           63471          6.0667307e-12
       195   633.43742          87157   383            377            18502          4171           63724          6.2235241e-12
       196   643.28734          87999   382            377            19004          4279           63957          6.3847439e-12
       197   653.28576          88862   382            376            19484          4399           64221          6.5357569e-12
       198   663.43499          89762   382            372            20022          4514           64472          6.6960167e-12
       199   673.75192          90590   381            369            20464          4663           64713          6.8509149e-12
       200   684.5688           91525   378            367            21007          4816           64957          7.0238052e-12
       201   695.30744          92423   376            363            21507          4958           65219          7.1844444e-12
       202   706.13163          93305   375            362            22007          5115           65446          7.3620971e-12
       203   717.03111          94207   375            362            22519          5263           65688          7.5327838e-12
       204   728.04011          95136   374            361            23034          5436           65931          7.7020419e-12
       205   739.14576          96044   373            359            23565          5617           66130          7.8770949e-12
       206   750.28698          97014   369            359            24076          5818           66392          8.0589141e-12
       207   761.53061          97873   368            357            24543          6023           66582          8.2362518e-12
       208   772.84242          98784   365            355            25033          6240           66791          8.4193376e-12
       209   784.20555          99835   364            352            25640          6458           67021          8.6189003e-12
       210   795.88522         100785   362            351            26222          6653           67197          8.8186711e-12
       211   807.40138         101779   359            348            26834          6846           67392          9.0182271e-12
       212   819.03544         102776   356            345            27411          7082           67582          9.2276891e-12
       213   830.68942         103670   355            342            27968          7281           67724          9.410593e-12 
       214   842.35344         104745   355            340            28665          7486           67899          9.6085811e-12
       215   854.10943         105682   352            338            29223          7707           68062          9.8147118e-12
       216   865.95221         106623   351            332            29796          7937           68207          9.999724e-12 
       217   877.85002         107549   347            329            30357          8169           68347          1.0165695e-11
       218   889.80941         108450   347            323            30929          8387           68464          1.0359632e-11
       219   901.80142         109355   340            317            31458          8637           68603          1.0525257e-11
       220   914.06679         110236   337            313            32009          8879           68698          1.0695329e-11
       221   926.15708         111201   335            308            32613          9138           68807          1.0881484e-11
       222   938.31936         112012   332            303            33072          9401           68904          1.1020663e-11
       223   950.50626         112898   327            293            33628          9653           68997          1.1185272e-11
       224   962.73535         113669   319            281            34051          9932           69086          1.1299649e-11
       225   975.04579         114508   313            275            34562          10199          69159          1.1443845e-11
       226   987.39978         115195   306            271            34911          10484          69223          1.1548342e-11
       227   999.7845          115906   304            263            35298          10762          69279          1.165785e-11 
       228   1012.2312         116645   299            254            35663          11079          69350          1.1742228e-11
       229   1024.7481         117381   293            249            36078          11351          69410          1.1829511e-11
       230   1037.5839         118020   283            242            36426          11604          69465          1.1896332e-11
       231   1050.1679         118615   271            231            36729          11876          69508          1.1965446e-11
       232   1062.8109         119250   258            223            37040          12174          69555          1.2036214e-11
       233   1075.4763         119798   249            216            37274          12465          69594          1.2062605e-11
       234   1088.2206         120463   242            209            37628          12746          69638          1.2136305e-11
       235   1100.9965         121031   230            193            37933          13008          69667          1.2174223e-11
       236   1113.7944         121591   227            184            38143          13340          69697          1.2197997e-11
       237   1126.6649         122120   224            176            38330          13656          69734          1.2236832e-11
       238   1139.543          122622   215            168            38490          13976          69773          1.2263685e-11
       239   1152.4676         123136   206            161            38662          14299          69808          1.2292426e-11
       240   1165.7031         123652   197            155            38831          14628          69841          1.2304677e-11
       241   1178.7242         124202   191            151            39052          14939          69869          1.2309939e-11
       242   1191.7385         124669   186            142            39193          15250          69898          1.2339073e-11
       243   1204.8301         125084   179            137            39285          15555          69928          1.2320301e-11
       244   1217.9151         125509   173            131            39382          15863          69960          1.2305594e-11
       245   1231.1006         126063   169            127            39587          16196          69984          1.2323152e-11
       246   1244.2785         126504   166            123            39670          16524          70021          1.2319357e-11
       247   1257.4869         126977   161            119            39789          16863          70045          1.2314058e-11
       248   1270.7505         127364   156            118            39841          17170          70079          1.2309195e-11
       249   1284.0547         127769   148            111            39907          17489          70114          1.2300347e-11
       250   1297.804          128302   139            107            40093          17818          70145          1.2324005e-11
       251   1311.2244         128716   134            102            40129          18175          70176          1.2284665e-11
       252   1324.6912         129119   127            99             40164          18522          70207          1.2286079e-11
       253   1338.1695         129492   125            95             40177          18859          70236          1.226092e-11 
       254   1351.7251         129892   120            88             40217          19197          70270          1.2272621e-11
       255   1365.308          130240   116            80             40187          19557          70300          1.2242859e-11
       256   1378.938          130816   110            80             40407          19890          70329          1.2258783e-11
       257   1392.6126         131211   106            76             40437          20233          70359          1.2253498e-11
       258   1406.3438         131566   102            71             40428          20579          70386          1.2235937e-11
       259   1420.0986         131924   101            69             40408          20928          70418          1.2226728e-11
       260   1434.1819         132341   98             67             40454          21269          70453          1.2216642e-11
       261   1448.0627         132725   93             64             40502          21583          70483          1.2203971e-11
       262   1461.9968         133181   92             59             40567          21940          70523          1.2213418e-11
       263   1475.9411         133547   89             58             40571          22281          70548          1.2197619e-11
       264   1489.9399         133928   85             56             40594          22621          70572          1.2197387e-11
       265   1503.9905         134289   83             54             40587          22955          70610          1.2182764e-11
       266   1518.055          134672   82             53             40621          23267          70649          1.2184071e-11
       267   1532.1522         135136   82             51             40718          23603          70682          1.2210836e-11
       268   1546.3102         135510   76             45             40741          23941          70707          1.2201238e-11
       269   1560.538          135965   73             43             40853          24260          70736          1.2209353e-11
       270   1575.1155         136324   71             41             40818          24620          70774          1.2204222e-11
       271   1589.3878         136725   70             41             40825          24984          70805          1.219302e-11 
       272   1603.7626         137077   69             40             40752          25381          70835          1.2218432e-11
       273   1618.247          137433   66             39             40686          25775          70867          1.2206866e-11
       274   1632.7866         137851   66             39             40626          26216          70904          1.2214769e-11
       275   1647.3208         138225   64             38             40564          26626          70933          1.219508e-11 
       276   1661.9139         138623   62             36             40503          27059          70963          1.2191119e-11
       277   1676.561          138862   58             35             40272          27499          70998          1.2171502e-11
       278   1691.2713         139312   56             35             40311          27881          71029          1.2182717e-11
       279   1706.0256         139598   53             33             40161          28301          71050          1.217366e-11 
       280   1721.1087         140014   51             33             40080          28763          71087          1.2180897e-11
       281   1735.9886         140443   48             33             40021          29225          71116          1.2203622e-11
       282   1750.8905         140712   46             31             39787          29706          71142          1.2185871e-11
       283   1765.7892         141065   46             28             39672          30144          71175          1.2177221e-11
       284   1780.7907         141478   45             28             39604          30599          71202          1.2194834e-11
       285   1795.835          141834   44             27             39443          31092          71228          1.2196852e-11
       286   1810.8994         142207   44             27             39280          31594          71262          1.2206105e-11
       287   1826.0335         142568   42             27             39122          32088          71289          1.2206185e-11
       288   1841.1454         143012   40             27             39052          32580          71313          1.2242453e-11
       289   1856.3598         143253   40             27             38796          33041          71349          1.224031e-11 
       290   1871.9219         143655   39             27             38708          33512          71369          1.2249397e-11
       291   1887.1632         143940   38             27             38468          34002          71405          1.2241643e-11
       292   1902.5396         144332   35             27             38331          34510          71429          1.2252766e-11
       293   1917.9556         144686   34             27             38163          35000          71462          1.224775e-11 
       294   1933.3577         145095   33             27             38066          35482          71487          1.2257165e-11
       295   1948.7756         145339   32             26             37823          35948          71510          1.2266236e-11
       296   1964.2826         145605   32             25             37612          36394          71542          1.2275342e-11
       297   1979.7954         146005   31             24             37574          36811          71565          1.2281351e-11
       298   1995.3909         146367   31             24             37453          37260          71599          1.2288799e-11
       299   2011.0018         146741   31             23             37421          37645          71621          1.2279072e-11
       300   2027.014          147192   28             23             37427          38064          71650          1.2316645e-11
       301   2042.7007         147416   27             22             37209          38489          71669          1.2321918e-11
       302   2058.4942         147774   27             22             37110          38916          71699          1.2339722e-11
       303   2074.2066         148121   27             22             37046          39305          71721          1.2358112e-11
       304   2089.9005         148392   27             22             36898          39695          71750          1.234708e-11 
       305   2105.8176         148784   27             22             36908          40057          71770          1.2348617e-11
       306   2121.6119         149150   27             22             36852          40449          71800          1.237836e-11 
       307   2137.5352         149399   27             22             36705          40821          71824          1.237043e-11 
       308   2153.5635         149635   26             22             36561          41175          71851          1.2361808e-11
       309   2169.5052         150024   26             22             36556          41546          71874          1.2371592e-11
       310   2185.8305         150435   26             22             36575          41908          71904          1.2393729e-11
       311   2201.8028         150727   26             22             36516          42240          71923          1.241009e-11 
       312   2217.9059         151016   26             22             36384          42630          71954          1.2408328e-11
       313   2234.0257         151366   26             22             36365          42977          71976          1.2435244e-11
       314   2250.1302         151764   26             22             36362          43351          72003          1.2459795e-11
       315   2266.4725         152110   26             21             36341          43697          72025          1.2458753e-11
       316   2282.8501         152338   26             21             36212          44027          72052          1.2441319e-11
       317   2299.2031         152631   26             21             36112          44398          72074          1.2448865e-11
       318   2315.5061         152987   26             21             36155          44685          72100          1.2448393e-11
       319   2331.77           153348   26             21             36123          45050          72128          1.2491491e-11
       320   2348.4347         153669   26             21             36109          45362          72151          1.2493686e-11
Loop time of 2348.44 on 16 procs for 320 steps with 153669 atoms

98.3% CPU use with 16 MPI tasks x 1 OpenMP threads

MPI task timing breakdown:
Section |  min time  |  avg time  |  max time  |%varavg| %total
---------------------------------------------------------------
Pair    | 573.57     | 675.57     | 815.87     | 284.4 | 28.77
Neigh   | 476.9      | 593.65     | 791.57     | 434.1 | 25.28
Comm    | 211.83     | 261.3      | 307.04     | 191.8 | 11.13
Output  | 14.19      | 14.19      | 14.191     |   0.0 |  0.60
Modify  | 410.85     | 791.92     | 1040.9     | 714.1 | 33.72
Other   |            | 11.8       |            |       |  0.50

Nlocal:        9604.31 ave       12715 max        7960 min
Histogram: 4 4 3 1 0 0 0 0 0 4
Nghost:         7502.5 ave        9768 max        6217 min
Histogram: 4 4 0 4 0 0 0 0 0 4
Neighs:        92720.3 ave      103106 max       83585 min
Histogram: 1 2 3 3 1 2 0 0 1 3

Total # of neighbors = 1483525
Ave neighs/atom = 9.6540291
Neighbor list builds = 28152
Dangerous builds = 27832

Total wall time: 0:39:47
