LAMMPS (23 Jun 2022 - Update 4)
  using 1 OpenMP thread(s) per MPI task
package omp 0
using multi-threaded neighbor list subroutines
#-----------------------------------------------------------------------------#
#                NUFEB Simulation: Heterotrophic Biofilm Growth               #
#-----------------------------------------------------------------------------#


#-----------------------------System Settings---------------------------------#

units si                                    # using si units (m, s, kg)
atom_style      coccus                      # using nufeb coccus atom style
atom_modify     map array sort 10 0         # map array - find atoms using indices
		                            # sort every 10

boundary        pp pp ff                    # periodic boundaries in x and y
                                            # fixed boundary in z

newton          off                         # forces between local and ghost
                                            # atoms are computed in each
					     # processor without communication

processors      * * 1                       # processor grid

comm_modify     vel yes                     # communicate velocities for ghost atoms

read_data       atom_ch.in	             # read atom.in file which defines domain size
Reading data file ...
  orthogonal box = (0 0 0) to (6e-05 6e-05 6e-05)
  4 by 4 by 1 MPI processor grid
  reading atoms ...
  150 atoms
  read_data CPU = 0.025 seconds
                                            # and initial atoms


#--------------------Microbes and Functional Groups-------------------------#

group           CROSS1   type 1               # assign type 1,2 atoms to CROSS group
50 atoms in group CROSS1
group           CROSS2   type 2
50 atoms in group CROSS2
group		CHEATER  type 3
50 atoms in group CHEATER
group           dead     type 4
0 atoms in group dead
group		EPS	 type 5
0 atoms in group EPS

neighbor        5e-7 bin                   # setting neighbour skin distance and style

neigh_modify    check yes                  # rebuild neighbour list if any atom
                                           # had moved more than half the skin distance


#--------------------------Mesh Grid and Substrates--------------------------#

# defining grid sytle, substrate names, and grid size
grid_style      nufeb/chemostat 3 sub metab1 metab2 5e-6

# set diffusion boundary conditions and initial concentrations (liquid:kg/m3)
grid_modify     set sub      pp pp nd  1.8e-4
No /omp style for force computation currently active
grid_modify     set metab1   pp pp nd  1e-4
No /omp style for force computation currently active
grid_modify     set metab2   pp pp nd  1e-4
No /omp style for force computation currently active


#--------------------------Biological Processes-------------------------------#

# heterotrophs growth
fix growth_cross1 CROSS1 nufeb/growth/cross1 sub 3.5e-5 metab2 4e-3 metab1 growth 0.009 yield 0.6 decay 2.6e-6 metab1_exp 20 epsyield 0.12 epsdens 30

fix growth_cross2 CROSS2 nufeb/growth/cross2 sub 3.5e-5 metab1 4e-3 metab2 growth 0.009 yield 0.6 decay 2.6e-6 metab2_exp 20 epsyield 0.12 epsdens 30

fix growth_cheater CHEATER nufeb/growth/cheater sub 3.5e-5 metab1 1e-3 metab2 1e-3 growth 0.009 yield 0.6 decay 2.6e-6

# heterotrophs division, division diameter: 1.36e-6
fix div1 CROSS1 nufeb/division/coccus 1.36e-6 119
fix div2 CROSS2 nufeb/division/coccus 1.36e-6 170
fix div3 CHEATER nufeb/division/coccus 1.36e-6 253

fix death1 CROSS1 nufeb/death/diameter dead 5.43e-7
fix death2 CROSS2 nufeb/death/diameter dead 5.43e-7
fix death3 CHEATER nufeb/death/diameter dead 5.43e-7

# EPS secretion from heterotrophs
fix eps1 CROSS1 nufeb/eps_secretion 5 EPS 1.1 30 368
fix eps2 CROSS2 nufeb/eps_secretion 5 EPS 1.1 30 515

#---------------------------Physical Processes--------------------------------#

pair_style  gran/hooke/history 1e-4 NULL 1e-5 NULL 0.0 0    # pairwise interaction
pair_coeff  * *                                             # between atoms

# pairwise interaction between z-wall and atoms
fix wall all wall/gran hooke/history 1e-3 NULL 1e-4 NULL 0 0 zplane 0.0 1e-04

fix vis all viscous 1e-5                                    # viscous damping force

fix grav all gravity 9.81 vector 0.0 0.0 -1.0

fix nve all nve/limit 1e-7                                  # NVE integration with
                                                            # maximum distance limit


#---------------------------Post-Physical Processes---------------------------#

fix coeff_sub all nufeb/diffusion_coeff sub ratio 0.8       # defining diffusion coeff in the biofilm
fix coeff_metab1 all nufeb/diffusion_coeff metab1 ratio 0.8    # region is 80% of the value in liquid
fix coeff_metab2 all nufeb/diffusion_coeff metab2 ratio 0.8

#---------------------------Chemical Processes---------------------------------#

fix diff_sub all nufeb/diffusion_reaction sub 1e-9        # diffusion reaction for updating
fix diff_metab1 all nufeb/diffusion_reaction metab1 4e-9     # distribusion of substrate concentration
fix diff_metab2 all nufeb/diffusion_reaction metab2 4e-9

#--------------------------Computations and Outputs----------------------------#

variable mass equal "mass(all)"                             # total mass
variable ncross1 equal "count(CROSS1)"                      # total # of CROSS1
variable ncross2 equal "count(CROSS2)"                      # total # of CROSS2
variable ncheater equal "count(CHEATER)"
variable ndead equal "count(dead)"
variable neps equal "count(EPS)"

shell mkdir vtk_EPS_ch                                            # dump vtk files to /vtk folder
dump du1 all vtk 10 vtk_EPS_ch/dump*.vtu id type diameter         # require build NUFEB with vtk option
dump du2 all grid/vtk 10 vtk_EPS_ch/dump_%_*.vti con rea den gro

#dump du3 all movie 10 movie.avi type diameter view 80 60    # dump video
#dump_modify du3 acolor 1 blue acolor 2 lightgrey framerate 10


                                                            # dump hdf5 files to /hdf5 folder
#shell mkdir hdf5                                           # require build NUFEB with hdf5 option
#dump du3 all nufeb/hdf5 10 dump.h5 id type x y z vx vy vz fx fy fz radius conc reac

thermo_style custom step cpu atoms v_ncross1 v_ncross2 v_ncheater v_ndead v_neps v_mass     # screen and log outputs
thermo 1
thermo_modify   lost ignore

#-----------------------------------Run----------------------------------------#

# issue run command, define timesteps for physical (pairdt) and chemical (diffdt) processes
run_style nufeb diffdt 1e-4 difftol 1e-6 pairdt 1e-2 pairtol 1 pairmax 1000 diffmax 5000

timestep 12000                                               # define biological timesteps (1000s)

run 320                                                    # growing biofilm for 900x1000s
Generated 0 of 6 mixed pair_coeff terms from geometric mixing rule
Last active /omp style is pair_style gran/hooke/history/omp
Neighbor list info ...
  update every 1 steps, delay 10 steps, check yes
  max neighbors/atom: 2000, page size: 100000
  master list distance cutoff = 2.49e-06
  ghost atom cutoff = 2.49e-06
  binsize = 1.245e-06, bins = 49 49 49
  1 neighbor lists, perpetual/occasional/extra = 1 0 0
  (1) pair gran/hooke/history/omp, perpetual
      attributes: half, newton off, size, history, omp
      pair build: half/size/bin/newtoff/omp
      stencil: full/bin/3d
      bin: standard
Per MPI rank memory allocation (min/avg/max) = 11.02 | 11.02 | 11.02 Mbytes
   Step          CPU          Atoms      v_ncross1      v_ncross2      v_ncheater      v_ndead         v_neps         v_mass    
         0   0                    150   50             50             50             0              0              1.3295396e-13
         1   0.37614699           432   90             85             86             0              171            1.7270656e-13
         2   0.75203716           790   119            124            136            0              411            1.9546852e-13
         3   1.075013            1127   129            144            181            0              673            2.1473754e-13
         4   1.3823695           1437   136            154            203            0              944            2.3298791e-13
         5   1.5740735           1748   140            159            219            0              1230           2.5070036e-13
         6   1.7419105           2082   146            173            238            0              1525           2.680534e-13 
         7   1.9063134           2432   152            184            258            0              1838           2.8528537e-13
         8   2.0602416           2785   159            191            278            0              2157           3.0225706e-13
         9   2.2326159           3153   167            196            305            0              2485           3.192103e-13 
        10   2.3884253           3524   174            200            326            0              2824           3.3600592e-13
        11   2.5277796           3890   176            207            347            0              3160           3.524929e-13 
        12   2.6603562           4269   179            214            366            0              3510           3.6880793e-13
        13   2.772196            4652   184            222            387            0              3859           3.8478719e-13
        14   2.8893542           5052   193            228            403            0              4228           4.0050008e-13
        15   3.0080867           5428   196            231            424            0              4577           4.1587192e-13
        16   3.1335148           5834   198            239            452            0              4945           4.3114217e-13
        17   3.2382785           6227   199            245            471            0              5312           4.457837e-13 
        18   3.3425348           6620   205            253            487            0              5675           4.5974277e-13
        19   3.4437182           7019   211            259            507            0              6042           4.7308114e-13
        20   3.5555765           7406   214            261            536            0              6395           4.8589196e-13
        21   3.6581821           7803   219            266            551            0              6767           4.9872561e-13
        22   3.7670276           8206   221            268            576            0              7141           5.1103761e-13
        23   3.8642431           8585   225            271            591            0              7498           5.227075e-13 
        24   3.9697144           8979   231            276            605            0              7867           5.3394335e-13
        25   4.0797496           9368   232            281            626            0              8229           5.4483891e-13
        26   4.2012109           9756   238            286            636            0              8596           5.5548023e-13
        27   4.2906351          10168   241            290            652            0              8985           5.660139e-13 
        28   4.3779785          10554   244            293            673            0              9344           5.7605503e-13
        29   4.4742894          10948   246            298            692            0              9712           5.8591143e-13
        30   10.246503          11335   247            304            704            0              10080          5.9544319e-13
        31   10.359161          11737   250            307            718            0              10462          6.0484559e-13
        32   10.463753          12142   254            312            735            0              10841          6.1383851e-13
        33   10.581684          12536   256            314            750            0              11216          6.2257713e-13
        34   10.747444          12942   257            317            767            0              11601          6.3109084e-13
        35   10.912957          13312   261            320            775            0              11956          6.3914705e-13
        36   11.125154          13730   263            323            793            0              12351          6.4693664e-13
        37   11.396176          14109   267            325            803            0              12714          6.5402907e-13
        38   11.601406          14521   269            327            816            0              13109          6.6100168e-13
        39   11.890766          14909   274            330            827            0              13478          6.6753679e-13
        40   50.671278          15321   282            333            832            0              13874          6.7364868e-13
        41   51.005273          15699   286            334            834            0              14245          6.7935943e-13
        42   51.668042          16120   288            337            843            0              14652          6.8512267e-13
        43   52.623462          16493   289            339            847            0              15018          6.9037285e-13
        44   53.425601          16917   292            339            856            0              15430          6.9529464e-13
        45   54.08194           17316   296            342            864            0              15814          7.0021428e-13
        46   54.695973          17728   298            343            870            0              16217          7.0516474e-13
        47   55.740262          18125   303            343            882            0              16597          7.0980625e-13
        48   56.78389           18558   307            345            890            0              17016          7.1443956e-13
        49   57.82247           18967   311            347            905            0              17404          7.1888419e-13
        50   58.965007          19380   311            350            909            0              17810          7.2339224e-13
        51   60.060318          19787   312            352            922            0              18201          7.2789766e-13
        52   61.184226          20228   317            356            934            1              18620          7.3267563e-13
        53   62.306642          20633   317            360            943            1              19012          7.3735683e-13
        54   63.492961          21091   321            360            960            1              19449          7.4238881e-13
        55   64.682505          21481   322            361            970            1              19827          7.4731946e-13
        56   65.89559           21931   323            363            990            1              20254          7.5249797e-13
        57   67.12309           22324   325            364            1000           1              20634          7.5758056e-13
        58   68.375037          22756   326            365            1015           1              21049          7.6248446e-13
        59   69.629003          23170   327            366            1027           1              21449          7.6719061e-13
        60   70.990777          23598   327            369            1038           1              21863          7.716411e-13 
        61   72.296819          24002   330            369            1048           4              22251          7.7577899e-13
        62   73.668252          24453   330            370            1065           6              22682          7.7997967e-13
        63   75.042632          24854   331            370            1080           7              23066          7.841608e-13 
        64   76.474328          25286   332            372            1091           8              23483          7.88613e-13  
        65   77.929958          25701   334            375            1100           11             23881          7.9322466e-13
        66   79.449587          26123   336            376            1113           13             24285          7.981272e-13 
        67   81.007593          26552   336            378            1127           16             24695          8.0343709e-13
        68   82.582495          26971   338            378            1135           20             25100          8.0935473e-13
        69   84.20096           27401   339            379            1150           26             25507          8.1586847e-13
        70   85.937226          27823   342            381            1166           30             25904          8.2256013e-13
        71   87.592086          28257   342            382            1180           34             26319          8.3018116e-13
        72   89.297098          28668   344            382            1193           41             26708          8.3765484e-13
        73   90.967803          29107   344            385            1210           45             27123          8.4547597e-13
        74   92.647121          29510   344            388            1222           52             27504          8.529665e-13 
        75   94.342211          29963   345            389            1242           57             27930          8.6069828e-13
        76   96.059351          30365   346            390            1252           65             28312          8.6792469e-13
        77   97.799399          30814   350            392            1266           69             28737          8.7514329e-13
        78   99.593719          31228   351            392            1287           74             29124          8.8208646e-13
        79   101.45906          31682   351            392            1315           75             29549          8.8932006e-13
        80   103.45332          32089   351            392            1335           84             29927          8.9681522e-13
        81   105.43294          32538   353            394            1345           94             30352          9.0485125e-13
        82   107.41443          32942   354            394            1358           102            30734          9.13014e-13  
        83   109.48816          33391   356            394            1385           104            31152          9.216009e-13 
        84   111.65411          33807   356            394            1405           112            31540          9.3102976e-13
        85   113.89086          34235   358            394            1425           121            31937          9.4131386e-13
        86   116.14485          34676   360            394            1468           125            32329          9.5255436e-13
        87   118.41695          35086   361            396            1484           138            32707          9.6473001e-13
        88   120.68684          35550   361            397            1523           145            33124          9.7752179e-13
        89   123.0023           35963   361            397            1558           155            33492          9.9041646e-13
        90   125.4294           36395   361            398            1590           165            33881          1.0036147e-12
        91   127.76994          36827   361            398            1633           176            34259          1.0168331e-12
        92   130.18724          37241   361            399            1660           188            34633          1.0298963e-12
        93   132.59257          37676   361            399            1692           207            35017          1.0431723e-12
        94   134.9971           38107   362            399            1717           223            35406          1.0563949e-12
        95   137.48959          38525   363            399            1750           237            35776          1.0694076e-12
        96   140.0912           38960   363            399            1797           246            36155          1.0828986e-12
        97   142.76189          39390   363            401            1839           259            36528          1.0966716e-12
        98   145.46521          39816   363            403            1878           279            36893          1.1114558e-12
        99   148.25041          40246   363            404            1911           300            37268          1.1271807e-12
       100   172.12958          40648   363            406            1955           310            37614          1.1435529e-12
       101   174.94078          41080   363            406            1999           329            37983          1.1611202e-12
       102   177.81072          41500   364            408            2046           338            38344          1.1791119e-12
       103   180.82473          41913   364            409            2114           345            38681          1.1975714e-12
       104   183.76321          42323   364            409            2161           353            39036          1.2162759e-12
       105   186.68227          42726   365            411            2223           359            39368          1.2348164e-12
       106   189.69212          43157   365            412            2280           370            39730          1.2532945e-12
       107   192.65004          43546   367            412            2335           380            40052          1.2710767e-12
       108   195.73644          43971   367            414            2404           383            40403          1.2885684e-12
       109   198.86164          44381   369            414            2474           390            40734          1.3056582e-12
       110   202.26718          44790   371            416            2530           398            41075          1.3228986e-12
       111   205.59163          45183   371            417            2581           407            41407          1.3407668e-12
       112   208.94739          45591   371            417            2648           414            41741          1.3593518e-12
       113   212.37015          46004   372            417            2717           421            42077          1.3789493e-12
       114   215.86549          46432   374            418            2795           429            42416          1.3997499e-12
       115   219.41004          46828   378            419            2866           440            42725          1.4214306e-12
       116   223.01091          47258   379            420            2938           449            43072          1.4434834e-12
       117   226.65012          47670   379            422            3015           456            43398          1.4659145e-12
       118   230.34606          48086   380            423            3085           466            43732          1.4880608e-12
       119   234.12161          48518   384            424            3176           471            44063          1.5098678e-12
       120   238.10767          48912   384            425            3245           475            44383          1.5320273e-12
       121   242.02446          49324   385            425            3318           485            44711          1.5542768e-12
       122   245.98217          49751   387            426            3395           500            45043          1.5767602e-12
       123   250.05426          50160   387            427            3479           512            45355          1.5993968e-12
       124   254.14052          50602   389            427            3576           527            45683          1.6232978e-12
       125   258.2919           51021   390            428            3669           539            45995          1.6479769e-12
       126   262.50072          51447   392            428            3749           554            46324          1.6733084e-12
       127   266.75907          51874   393            429            3831           574            46647          1.6991782e-12
       128   271.10112          52306   394            430            3910           597            46975          1.7252757e-12
       129   275.51141          52724   394            430            3977           634            47289          1.7517321e-12
       130   280.1147           53163   396            430            4043           667            47627          1.7773229e-12
       131   284.64758          53567   396            431            4125           690            47925          1.8025981e-12
       132   289.29098          54006   397            436            4212           718            48243          1.8278555e-12
       133   294.0013           54463   399            436            4290           748            48590          1.8537535e-12
       134   298.77068          54892   400            437            4358           786            48911          1.8791983e-12
       135   303.64497          55307   400            437            4427           828            49215          1.9043055e-12
       136   308.62274          55735   400            439            4494           858            49544          1.9295703e-12
       137   313.69361          56195   401            440            4578           897            49879          1.9557813e-12
       138   318.83372          56604   402            441            4648           932            50181          1.9825487e-12
       139   324.05075          57039   403            443            4718           971            50504          2.0101596e-12
       140   329.49747          57484   404            443            4792           1011           50834          2.0378675e-12
       141   334.91395          57900   408            443            4877           1046           51126          2.0660475e-12
       142   340.37752          58352   408            443            4950           1087           51464          2.0945905e-12
       143   345.94274          58810   408            444            5032           1124           51802          2.1240825e-12
       144   351.59369          59221   411            444            5119           1156           52091          2.1529827e-12
       145   357.3413           59701   412            445            5240           1181           52423          2.1830412e-12
       146   363.17881          60176   412            445            5343           1216           52760          2.2136065e-12
       147   369.10997          60650   414            446            5443           1256           53091          2.2439524e-12
       148   375.11088          61096   414            447            5538           1288           53409          2.2750393e-12
       149   381.1712           61551   414            446            5649           1314           53728          2.3067988e-12
       150   387.50489          62016   414            446            5749           1350           54057          2.3383598e-12
       151   393.77361          62490   415            446            5877           1380           54372          2.3715888e-12
       152   400.11615          62974   415            447            5977           1425           54710          2.4054303e-12
       153   406.54417          63456   417            447            6110           1458           55024          2.4407004e-12
       154   413.05794          63944   417            447            6218           1494           55368          2.4771001e-12
       155   419.69386          64429   416            447            6350           1535           55681          2.5141522e-12
       156   426.44462          64945   417            447            6482           1579           56020          2.5523098e-12
       157   433.26573          65466   416            447            6621           1616           56366          2.5909112e-12
       158   440.19867          65991   417            447            6778           1652           56697          2.6298143e-12
       159   447.23888          66466   417            448            6908           1685           57008          2.6694062e-12
       160   454.52607          66989   417            447            7043           1733           57349          2.7098417e-12
       161   461.73619          67461   417            447            7170           1776           57651          2.7506259e-12
       162   469.04923          68016   415            445            7314           1821           58021          2.7929405e-12
       163   476.49657          68539   415            445            7494           1868           58317          2.836235e-12 
       164   484.05039          69080   415            444            7646           1913           58662          2.8814043e-12
       165   491.7023           69642   415            444            7825           1955           59003          2.9276548e-12
       166   499.45872          70178   415            444            7977           2006           59336          2.9754041e-12
       167   507.35725          70682   415            444            8124           2054           59645          3.0249426e-12
       168   515.38207          71241   415            444            8283           2104           59995          3.0756786e-12
       169   523.50836          71816   414            444            8466           2167           60325          3.1274706e-12
       170   531.96081          72375   414            443            8620           2214           60684          3.1797388e-12
       171   540.37745          72933   413            443            8798           2264           61015          3.2330659e-12
       172   548.9197           73523   413            443            8999           2320           61348          3.2890203e-12
       173   557.60957          74121   414            443            9173           2403           61688          3.3490922e-12
       174   566.4537           74719   414            443            9352           2465           62045          3.4127098e-12
       175   575.4698           75343   413            442            9581           2536           62371          3.4798581e-12
       176   584.58427          75960   413            441            9793           2605           62708          3.5515326e-12
       177   593.77929          76591   413            440            10061          2653           63024          3.6266445e-12
       178   603.09943          77223   413            440            10295          2706           63369          3.7048295e-12
       179   612.61521          77887   413            439            10582          2757           63696          3.7861055e-12
       180   622.41942          78569   413            439            10879          2816           64022          3.8700468e-12
       181   632.182            79216   413            439            11130          2881           64353          3.960718e-12 
       182   642.06021          79890   413            439            11427          2941           64670          4.0606229e-12
       183   652.10736          80619   412            439            11765          3009           64994          4.1692648e-12
       184   662.33355          81385   412            439            12130          3078           65326          4.2870788e-12
       185   672.71744          82182   412            439            12522          3153           65656          4.4150568e-12
       186   683.31776          82976   412            439            12923          3222           65980          4.5495969e-12
       187   694.1003           83771   410            439            13347          3285           66290          4.6895874e-12
       188   705.04996          84578   410            438            13777          3348           66605          4.8305769e-12
       189   716.15978          85424   410            438            14232          3411           66933          4.9718465e-12
       190   727.72815          86237   410            437            14684          3476           67230          5.1167018e-12
       191   739.24689          87088   410            436            15142          3537           67563          5.2603685e-12
       192   750.97031          87927   410            435            15596          3615           67871          5.4045057e-12
       193   762.85876          88758   410            434            16043          3698           68173          5.5451101e-12
       194   774.95837          89612   410            433            16502          3778           68489          5.6985728e-12
       195   787.26606          90491   410            433            17002          3859           68787          5.8488487e-12
       196   799.77056          91340   410            432            17471          3949           69078          6.0005811e-12
       197   812.47996          92242   408            432            17959          4043           69400          6.1558844e-12
       198   825.3411           93084   408            430            18434          4144           69668          6.3099416e-12
       199   838.39654          93996   407            429            18920          4280           69960          6.4685873e-12
       200   851.86004          94930   407            429            19445          4376           70273          6.628542e-12 
       201   865.21779          95805   407            429            19936          4510           70523          6.7976533e-12
       202   878.70435          96758   407            428            20471          4648           70804          6.9739314e-12
       203   892.42961          97644   407            427            20954          4773           71083          7.141013e-12 
       204   906.22237          98593   406            427            21518          4922           71320          7.3232488e-12
       205   920.22926          99572   405            427            22053          5099           71588          7.5103033e-12
       206   934.31365         100541   404            426            22564          5295           71852          7.6889655e-12
       207   948.49233         101499   404            426            23108          5472           72089          7.8792018e-12
       208   962.79606         102480   403            423            23696          5652           72306          8.0864474e-12
       209   977.19695         103483   401            423            24303          5803           72553          8.277899e-12 
       210   991.96046         104457   401            421            24826          6010           72799          8.4823691e-12
       211   1006.5384         105391   401            420            25396          6197           72977          8.6766939e-12
       212   1021.224          106391   401            419            26019          6368           73184          8.8822341e-12
       213   1036.0519         107425   401            415            26659          6560           73390          9.0925646e-12
       214   1050.9714         108375   396            413            27215          6764           73587          9.2935554e-12
       215   1065.9912         109362   393            412            27847          6967           73743          9.5006105e-12
       216   1081.103          110288   393            409            28404          7180           73902          9.6982473e-12
       217   1096.2889         111297   392            408            29054          7389           74054          9.8974654e-12
       218   1111.5397         112273   391            408            29647          7593           74234          1.010113e-11 
       219   1126.9111         113234   391            408            30252          7823           74360          1.0290521e-11
       220   1142.6221         114155   390            407            30813          8047           74498          1.0486307e-11
       221   1158.239          115103   387            404            31449          8256           74607          1.0665792e-11
       222   1173.9236         116015   384            401            32017          8483           74730          1.0834365e-11
       223   1189.6898         116866   380            397            32509          8746           74834          1.098541e-11 
       224   1205.5152         117763   373            392            33075          8996           74927          1.1148681e-11
       225   1221.4029         118573   368            387            33561          9227           75030          1.1292482e-11
       226   1237.3404         119398   360            383            34064          9478           75113          1.1434581e-11
       227   1253.4362         120171   357            379            34514          9725           75196          1.1554671e-11
       228   1269.559          120848   351            374            34894          9964           75265          1.1640777e-11
       229   1285.741          121615   347            366            35340          10231          75331          1.1745312e-11
       230   1302.2781         122255   342            362            35657          10498          75396          1.1825681e-11
       231   1318.6994         122903   332            360            35967          10791          75453          1.1898988e-11
       232   1335.1706         123588   327            352            36301          11090          75518          1.1963403e-11
       233   1351.7361         124217   321            343            36622          11364          75567          1.2003538e-11
       234   1368.3631         124805   312            334            36900          11624          75635          1.2063899e-11
       235   1384.9675         125432   306            328            37202          11911          75685          1.2126561e-11
       236   1401.6411         126059   303            318            37492          12195          75751          1.2163355e-11
       237   1418.4293         126613   296            312            37737          12474          75794          1.221765e-11 
       238   1435.2752         127213   285            305            38036          12747          75840          1.2255898e-11
       239   1452.2247         127692   277            300            38223          13016          75876          1.2269413e-11
       240   1469.5313         128325   269            290            38572          13282          75912          1.2302304e-11
       241   1486.5687         128778   263            284            38745          13545          75941          1.2295646e-11
       242   1503.7577         129273   254            276            38923          13840          75980          1.2324862e-11
       243   1520.9916         129714   246            264            39041          14141          76022          1.2316599e-11
       244   1538.298          130168   238            256            39156          14458          76060          1.2309667e-11
       245   1555.6223         130689   228            245            39319          14793          76104          1.230639e-11 
       246   1573.0247         131187   218            240            39429          15154          76146          1.2319734e-11
       247   1590.5335         131676   211            233            39569          15465          76198          1.2323782e-11
       248   1608.0366         132146   205            225            39679          15799          76238          1.2335495e-11
       249   1625.5924         132556   199            217            39740          16124          76276          1.2323537e-11
       250   1643.571          133061   188            211            39888          16464          76310          1.2314296e-11
       251   1661.2864         133477   179            202            39926          16821          76349          1.2306884e-11
       252   1679.0119         133974   174            196            40067          17151          76386          1.2305307e-11
       253   1696.8668         134347   165            187            40074          17492          76429          1.228958e-11 
       254   1714.9259         134714   156            179            40079          17829          76471          1.2284543e-11
       255   1732.9267         135201   146            174            40190          18181          76510          1.2286547e-11
       256   1751.0015         135658   139            166            40300          18508          76545          1.2279801e-11
       257   1769.305          136086   133            159            40365          18852          76577          1.226898e-11 
       258   1787.6991         136521   125            152            40454          19171          76619          1.2271261e-11
       259   1806.1513         136935   120            148            40501          19502          76664          1.2281629e-11
       260   1824.8349         137340   115            141            40503          19862          76719          1.2257576e-11
       261   1843.5198         137664   105            132            40485          20188          76754          1.2241604e-11
       262   1862.2407         138208   102            123            40678          20524          76781          1.2238978e-11
       263   1881.0215         138580   97             121            40712          20830          76820          1.2216155e-11
       264   1899.9061         138956   92             114            40766          21124          76860          1.2214603e-11
       265   1918.7555         139345   89             108            40768          21468          76912          1.223398e-11 
       266   1937.4937         139675   87             104            40757          21779          76948          1.2208254e-11
       267   1956.3137         140064   81             98             40805          22103          76977          1.2216792e-11
       268   1975.1378         140568   72             94             40936          22452          77014          1.2215579e-11
       269   1994.0123         140902   71             88             40899          22793          77051          1.2183376e-11
       270   2013.3141         141257   65             84             40816          23192          77100          1.2178182e-11
       271   2032.4137         141644   65             82             40835          23535          77127          1.2173961e-11
       272   2051.5492         142053   61             77             40820          23931          77164          1.218997e-11 
       273   2070.8707         142401   58             74             40767          24296          77206          1.2171579e-11
       274   2090.2094         142801   55             72             40759          24675          77240          1.2164595e-11
       275   2109.4792         143192   54             67             40726          25068          77277          1.2164621e-11
       276   2128.918          143591   53             65             40699          25460          77314          1.2163648e-11
       277   2148.7026         143913   51             63             40557          25895          77347          1.2159637e-11
       278   2168.2797         144332   51             61             40462          26370          77388          1.2182316e-11
       279   2187.9435         144688   47             60             40336          26824          77421          1.2186179e-11
       280   2207.9877         145090   44             59             40260          27270          77457          1.2179002e-11
       281   2227.8323         145436   41             57             40118          27728          77492          1.2170207e-11
       282   2247.7795         145741   38             53             39939          28187          77524          1.2159923e-11
       283   2267.6529         146108   35             52             39841          28625          77555          1.2155644e-11
       284   2287.7523         146505   35             48             39723          29112          77587          1.2164801e-11
       285   2307.8209         146807   34             45             39521          29588          77619          1.215144e-11 
       286   2328.0002         147130   32             43             39331          30078          77646          1.2141879e-11
       287   2348.1013         147550   32             41             39252          30542          77683          1.2169926e-11
       288   2368.4553         147943   32             40             39124          31034          77713          1.2193312e-11
       289   2388.7409         148277   31             40             38955          31509          77742          1.218716e-11 
       290   2409.5235         148629   30             40             38791          31992          77776          1.2198484e-11
       291   2429.9843         149015   28             38             38666          32479          77804          1.2208473e-11
       292   2450.3892         149334   27             38             38473          32964          77832          1.2218677e-11
       293   2470.9565         149712   27             37             38340          33443          77865          1.2222283e-11
       294   2491.6142         150101   27             34             38244          33904          77892          1.2242077e-11
       295   2512.2424         150398   26             33             38035          34383          77921          1.2253588e-11
       296   2532.9888         150758   26             32             37909          34841          77950          1.2253558e-11
       297   2553.7831         151072   26             32             37731          35305          77978          1.2250178e-11
       298   2574.5958         151446   26             32             37590          35791          78007          1.2259523e-11
       299   2595.4878         151818   26             32             37472          36254          78034          1.2267554e-11
       300   2616.8801         152124   26             32             37326          36674          78066          1.2265436e-11
       301   2637.8943         152498   26             32             37239          37110          78091          1.2283135e-11
       302   2659.1063         152809   25             31             37104          37528          78121          1.2296405e-11
       303   2680.3475         153178   25             31             37060          37916          78146          1.231188e-11 
       304   2701.4589         153561   25             31             36988          38340          78177          1.2333044e-11
       305   2722.788          153893   25             31             36897          38737          78203          1.2323923e-11
       306   2744.1932         154189   25             30             36774          39131          78229          1.2338867e-11
       307   2765.5333         154513   25             30             36672          39528          78258          1.2350328e-11
       308   2787.0837         154848   25             29             36610          39896          78288          1.2355278e-11
       309   2808.6492         155215   25             29             36587          40262          78312          1.2379756e-11
       310   2830.5196         155578   25             29             36540          40642          78342          1.238956e-11 
       311   2852.3222         155917   25             29             36468          41024          78371          1.2391169e-11
       312   2874.2588         156193   25             27             36355          41387          78399          1.2396621e-11
       313   2896.2428         156586   24             27             36368          41740          78427          1.2420938e-11
       314   2918.0587         156971   24             27             36386          42082          78452          1.2445049e-11
       315   2940.1521         157271   23             27             36318          42423          78480          1.2432283e-11
       316   2962.2384         157543   23             27             36227          42761          78505          1.2448454e-11
       317   2984.4558         157862   23             27             36171          43106          78535          1.2428713e-11
       318   3006.5051         158193   23             27             36128          43458          78557          1.2445306e-11
       319   3028.6359         158570   23             27             36159          43772          78589          1.2469578e-11
       320   3051.2495         158884   23             27             36136          44086          78612          1.2486534e-11
Loop time of 3051.25 on 16 procs for 320 steps with 158884 atoms

96.9% CPU use with 16 MPI tasks x 1 OpenMP threads

MPI task timing breakdown:
Section |  min time  |  avg time  |  max time  |%varavg| %total
---------------------------------------------------------------
Pair    | 815.8      | 914.44     | 1037.1     | 239.8 | 29.97
Neigh   | 547.48     | 645.63     | 839.22     | 392.4 | 21.16
Comm    | 392.66     | 467.99     | 573.6      | 294.4 | 15.34
Output  | 70.842     | 70.842     | 70.843     |   0.0 |  2.32
Modify  | 558.29     | 937.32     | 1204       | 715.7 | 30.72
Other   |            | 15.03      |            |       |  0.49

Nlocal:        9930.25 ave       13239 max        8416 min
Histogram: 5 5 2 0 0 0 0 0 1 3
Nghost:        7773.69 ave       10145 max        6569 min
Histogram: 4 5 3 0 0 0 0 0 2 2
Neighs:        98435.5 ave      108150 max       90793 min
Histogram: 4 2 0 0 2 2 2 1 2 1

Total # of neighbors = 1574968
Ave neighs/atom = 9.912691
Neighbor list builds = 28057
Dangerous builds = 27737

Total wall time: 0:51:22
