LAMMPS (23 Jun 2022 - Update 4)
  using 1 OpenMP thread(s) per MPI task
package omp 0
using multi-threaded neighbor list subroutines
#-----------------------------------------------------------------------------#
#                NUFEB Simulation: Heterotrophic Biofilm Growth               #
#-----------------------------------------------------------------------------#


#-----------------------------System Settings---------------------------------#

units si                                    # using si units (m, s, kg)
atom_style      coccus                      # using nufeb coccus atom style
atom_modify     map array sort 10 0         # map array - find atoms using indices
		                            # sort every 10

boundary        pp pp ff                    # periodic boundaries in x and y
                                            # fixed boundary in z

newton          off                         # forces between local and ghost
                                            # atoms are computed in each
					     # processor without communication

processors      * * 1                       # processor grid

comm_modify     vel yes                     # communicate velocities for ghost atoms

read_data       atom_ch.in	             # read atom.in file which defines domain size
Reading data file ...
  orthogonal box = (0 0 0) to (6e-05 6e-05 6e-05)
  4 by 4 by 1 MPI processor grid
  reading atoms ...
  150 atoms
  read_data CPU = 0.012 seconds
                                            # and initial atoms


#--------------------Microbes and Functional Groups-------------------------#

group           CROSS1   type 1               # assign type 1,2 atoms to CROSS group
50 atoms in group CROSS1
group           CROSS2   type 2
50 atoms in group CROSS2
group		CHEATER  type 3
50 atoms in group CHEATER
group           dead     type 4
0 atoms in group dead
group		EPS	 type 5
0 atoms in group EPS

neighbor        5e-7 bin                   # setting neighbour skin distance and style

neigh_modify    check yes                  # rebuild neighbour list if any atom
                                           # had moved more than half the skin distance


#--------------------------Mesh Grid and Substrates--------------------------#

# defining grid sytle, substrate names, and grid size
grid_style      nufeb/chemostat 3 sub metab1 metab2 5e-6

# set diffusion boundary conditions and initial concentrations (liquid:kg/m3)
grid_modify     set sub      pp pp nd  1.8e-4
No /omp style for force computation currently active
grid_modify     set metab1   pp pp nd  1e-4
No /omp style for force computation currently active
grid_modify     set metab2   pp pp nd  1e-4
No /omp style for force computation currently active


#--------------------------Biological Processes-------------------------------#

# heterotrophs growth
fix growth_cross1 CROSS1 nufeb/growth/cross1 sub 3.5e-5 metab2 4e-3 metab1 growth 0.009 yield 0.6 decay 2.6e-6 metab1_exp 20 epsyield 0.12 epsdens 30

fix growth_cross2 CROSS2 nufeb/growth/cross2 sub 3.5e-5 metab1 4e-3 metab2 growth 0.009 yield 0.6 decay 2.6e-6 metab2_exp 20 epsyield 0.12 epsdens 30

fix growth_cheater CHEATER nufeb/growth/cheater sub 3.5e-5 metab1 1e-3 metab2 1e-3 growth 0.009 yield 0.6 decay 2.6e-6

# heterotrophs division, division diameter: 1.36e-6
fix div1 CROSS1 nufeb/division/coccus 1.36e-6 184
fix div2 CROSS2 nufeb/division/coccus 1.36e-6 430
fix div3 CHEATER nufeb/division/coccus 1.36e-6 838

fix death1 CROSS1 nufeb/death/diameter dead 5.43e-7
fix death2 CROSS2 nufeb/death/diameter dead 5.43e-7
fix death3 CHEATER nufeb/death/diameter dead 5.43e-7

# EPS secretion from heterotrophs
fix eps1 CROSS1 nufeb/eps_secretion 5 EPS 1.1 30 1408
fix eps2 CROSS2 nufeb/eps_secretion 5 EPS 1.1 30 2140

#---------------------------Physical Processes--------------------------------#

pair_style  gran/hooke/history 1e-4 NULL 1e-5 NULL 0.0 0    # pairwise interaction
pair_coeff  * *                                             # between atoms

# pairwise interaction between z-wall and atoms
fix wall all wall/gran hooke/history 1e-3 NULL 1e-4 NULL 0 0 zplane 0.0 1e-04

fix vis all viscous 1e-5                                    # viscous damping force

fix grav all gravity 9.81 vector 0.0 0.0 -1.0

fix nve all nve/limit 1e-7                                  # NVE integration with
                                                            # maximum distance limit


#---------------------------Post-Physical Processes---------------------------#

fix coeff_sub all nufeb/diffusion_coeff sub ratio 0.8       # defining diffusion coeff in the biofilm
fix coeff_metab1 all nufeb/diffusion_coeff metab1 ratio 0.8    # region is 80% of the value in liquid
fix coeff_metab2 all nufeb/diffusion_coeff metab2 ratio 0.8

#---------------------------Chemical Processes---------------------------------#

fix diff_sub all nufeb/diffusion_reaction sub 1e-9        # diffusion reaction for updating
fix diff_metab1 all nufeb/diffusion_reaction metab1 4e-9     # distribusion of substrate concentration
fix diff_metab2 all nufeb/diffusion_reaction metab2 4e-9

#--------------------------Computations and Outputs----------------------------#

variable mass equal "mass(all)"                             # total mass
variable ncross1 equal "count(CROSS1)"                      # total # of CROSS1
variable ncross2 equal "count(CROSS2)"                      # total # of CROSS2
variable ncheater equal "count(CHEATER)"
variable ndead equal "count(dead)"
variable neps equal "count(EPS)"

shell mkdir vtk_EPS_ch                                            # dump vtk files to /vtk folder
dump du1 all vtk 10 vtk_EPS_ch/dump*.vtu id type diameter         # require build NUFEB with vtk option
dump du2 all grid/vtk 10 vtk_EPS_ch/dump_%_*.vti con rea den gro

#dump du3 all movie 10 movie.avi type diameter view 80 60    # dump video
#dump_modify du3 acolor 1 blue acolor 2 lightgrey framerate 10


                                                            # dump hdf5 files to /hdf5 folder
#shell mkdir hdf5                                           # require build NUFEB with hdf5 option
#dump du3 all nufeb/hdf5 10 dump.h5 id type x y z vx vy vz fx fy fz radius conc reac

thermo_style custom step cpu atoms v_ncross1 v_ncross2 v_ncheater v_ndead v_neps v_mass     # screen and log outputs
thermo 1
thermo_modify   lost ignore

#-----------------------------------Run----------------------------------------#

# issue run command, define timesteps for physical (pairdt) and chemical (diffdt) processes
run_style nufeb diffdt 1e-4 difftol 1e-6 pairdt 1e-2 pairtol 1 pairmax 1000 diffmax 5000

timestep 12000                                               # define biological timesteps (1000s)

run 320                                                    # growing biofilm for 900x1000s
Generated 0 of 6 mixed pair_coeff terms from geometric mixing rule
Last active /omp style is pair_style gran/hooke/history/omp
Neighbor list info ...
  update every 1 steps, delay 10 steps, check yes
  max neighbors/atom: 2000, page size: 100000
  master list distance cutoff = 2.49e-06
  ghost atom cutoff = 2.49e-06
  binsize = 1.245e-06, bins = 49 49 49
  1 neighbor lists, perpetual/occasional/extra = 1 0 0
  (1) pair gran/hooke/history/omp, perpetual
      attributes: half, newton off, size, history, omp
      pair build: half/size/bin/newtoff/omp
      stencil: full/bin/3d
      bin: standard
Per MPI rank memory allocation (min/avg/max) = 11.02 | 11.02 | 11.02 Mbytes
   Step          CPU          Atoms      v_ncross1      v_ncross2      v_ncheater      v_ndead         v_neps         v_mass    
         0   0                    150   50             50             50             0              0              1.3295396e-13
         1   0.3834383            432   90             85             86             0              171            1.7275263e-13
         2   0.76614622           797   119            125            139            0              414            1.954931e-13 
         3   1.0978102           1136   128            146            183            0              679            2.1483489e-13
         4   1.4068208           1434   134            153            201            0              946            2.3306593e-13
         5   1.6264538           1747   140            158            219            0              1230           2.5094879e-13
         6   1.8106261           2079   144            169            240            0              1526           2.6874226e-13
         7   1.9914498           2427   157            175            258            0              1837           2.8641917e-13
         8   2.1487031           2781   167            180            280            0              2154           3.041398e-13 
         9   2.3162197           3139   169            188            298            0              2484           3.2152868e-13
        10   2.504935            3506   174            200            319            0              2813           3.3852051e-13
        11   2.6874822           3878   176            207            345            0              3150           3.5501806e-13
        12   2.8068729           4268   181            212            376            0              3499           3.7148343e-13
        13   2.9382811           4636   186            214            389            0              3847           3.8758641e-13
        14   3.0465059           5020   192            221            405            0              4202           4.0309561e-13
        15   3.1711923           5403   197            226            423            0              4557           4.1828006e-13
        16   3.2863312           5794   204            232            442            0              4916           4.3302159e-13
        17   3.4213406           6192   210            234            468            0              5280           4.4738817e-13
        18   3.5112497           6594   218            239            493            0              5644           4.610506e-13 
        19   3.6350142           6994   222            246            513            0              6013           4.7433186e-13
        20   3.7914849           7386   229            251            530            0              6376           4.868376e-13 
        21   3.8915646           7782   230            256            549            0              6747           4.9911318e-13
        22   3.9798095           8162   233            256            562            0              7111           5.110021e-13 
        23   4.0937567           8563   236            258            585            0              7484           5.2259406e-13
        24   4.1819464           8949   240            260            599            0              7850           5.3387888e-13
        25   4.2642804           9327   241            266            609            0              8211           5.4447625e-13
        26   4.3639748           9728   246            270            629            0              8583           5.5475843e-13
        27   4.4783048          10133   250            272            643            0              8968           5.6470305e-13
        28   4.5646052          10498   254            276            652            0              9316           5.7401423e-13
        29   4.6705287          10892   257            277            665            0              9693           5.8299873e-13
        30   4.841429           11273   259            279            673            0              10062          5.9156203e-13
        31   4.943183           11657   262            285            686            0              10424          5.996053e-13 
        32   5.086449           12050   264            288            699            0              10799          6.0760979e-13
        33   5.1935743          12449   269            291            713            0              11176          6.1510116e-13
        34   5.339235           12844   275            298            728            0              11543          6.2237235e-13
        35   5.5176238          13248   281            301            738            0              11928          6.296689e-13 
        36   5.6901038          13661   284            306            746            0              12325          6.3692799e-13
        37   5.9439942          14042   287            307            756            0              12692          6.4380001e-13
        38   6.2529448          14462   290            309            769            0              13094          6.505979e-13 
        39   6.5394371          14853   292            310            783            0              13468          6.5699051e-13
        40   6.9411628          15244   298            312            789            0              13845          6.6324886e-13
        41   7.3697955          15661   302            316            798            0              14245          6.6922234e-13
        42   7.7923641          16049   302            318            806            0              14623          6.7508094e-13
        43   8.4410531          16438   307            319            816            0              14996          6.8077401e-13
        44   9.2751207          16866   312            321            828            0              15405          6.8666471e-13
        45   10.180135          17261   315            323            841            0              15782          6.9220668e-13
        46   11.113628          17676   320            324            852            0              16180          6.9785411e-13
        47   12.075841          18081   320            325            865            0              16571          7.0354456e-13
        48   13.024621          18486   322            328            878            0              16958          7.0893834e-13
        49   14.001711          18900   328            328            882            0              17362          7.1437897e-13
        50   15.072639          19292   329            329            895            0              17739          7.1999022e-13
        51   16.140155          19725   334            334            909            0              18148          7.2614454e-13
        52   17.18554           20145   336            335            925            0              18549          7.3224454e-13
        53   18.237525          20542   337            338            939            0              18928          7.3815362e-13
        54   19.353067          20961   338            339            955            0              19329          7.4403244e-13
        55   20.490252          21392   340            343            979            0              19730          7.5020896e-13
        56   21.661589          21779   342            344            992            0              20101          7.5642881e-13
        57   22.861754          22228   342            346            1014           0              20526          7.6324434e-13
        58   24.070893          22631   343            349            1025           2              20912          7.7005258e-13
        59   25.335326          23058   343            350            1041           2              21322          7.7728437e-13
        60   46.348579          23462   343            351            1067           2              21699          7.8478107e-13
        61   47.629338          23863   344            351            1085           2              22081          7.9238607e-13
        62   48.938358          24286   345            352            1106           5              22478          8.0040084e-13
        63   50.228333          24693   346            353            1126           7              22861          8.0829282e-13
        64   51.590905          25109   347            353            1153           7              23249          8.1603052e-13
        65   52.95928           25514   347            353            1174           9              23631          8.2409443e-13
        66   54.39829           25923   348            354            1188           13             24020          8.3224013e-13
        67   55.84036           26328   352            354            1213           15             24394          8.4075524e-13
        68   57.34187           26742   353            355            1231           21             24782          8.4960397e-13
        69   58.877144          27150   355            356            1265           24             25150          8.5891044e-13
        70   60.528114          27586   357            356            1293           27             25553          8.689194e-13 
        71   62.141706          27978   358            356            1321           30             25913          8.7922985e-13
        72   63.73262           28390   359            356            1347           37             26291          8.9016243e-13
        73   65.39562           28803   361            357            1369           45             26671          9.0115863e-13
        74   67.083588          29204   363            357            1402           52             27030          9.1281769e-13
        75   68.820024          29617   364            358            1435           54             27406          9.2500522e-13
        76   70.567417          30014   365            359            1462           59             27769          9.3777637e-13
        77   72.316288          30436   365            359            1499           69             28144          9.5098112e-13
        78   74.059293          30839   366            361            1540           75             28497          9.6406797e-13
        79   75.845664          31270   366            361            1580           81             28882          9.7719094e-13
        80   77.774602          31646   367            362            1614           86             29217          9.9012674e-13
        81   79.621344          32069   368            362            1645           91             29603          1.0033485e-12
        82   81.449379          32473   368            362            1678           104            29961          1.0164998e-12
        83   83.339579          32843   370            362            1699           117            30295          1.0292199e-12
        84   85.282127          33294   370            362            1741           123            30698          1.0421926e-12
        85   87.319138          33656   371            362            1774           132            31017          1.054785e-12 
        86   89.393509          34100   372            366            1810           141            31411          1.068758e-12 
        87   91.510762          34477   373            367            1847           150            31740          1.0827376e-12
        88   93.703059          34909   373            368            1888           159            32121          1.097754e-12 
        89   95.922678          35316   373            368            1931           173            32471          1.1138007e-12
        90   98.281747          35714   373            368            1980           179            32814          1.1304801e-12
        91   100.56406          36131   374            368            2035           190            33164          1.1478004e-12
        92   102.90089          36533   375            369            2082           205            33502          1.165848e-12 
        93   105.25095          36931   376            369            2123           214            33849          1.1847106e-12
        94   107.6442           37356   376            369            2199           221            34191          1.2039563e-12
        95   110.04347          37746   376            370            2259           225            34516          1.223567e-12 
        96   112.46286          38130   376            370            2313           237            34834          1.2432496e-12
        97   114.88928          38578   377            370            2388           251            35192          1.2632839e-12
        98   117.36813          38937   377            370            2435           264            35491          1.2829007e-12
        99   119.90101          39363   377            370            2501           271            35844          1.3025498e-12
       100   122.60232          39736   378            370            2561           284            36143          1.3222501e-12
       101   125.23351          40160   378            370            2629           300            36483          1.3423463e-12
       102   127.91521          40540   378            370            2696           312            36784          1.362713e-12 
       103   130.68377          40950   378            370            2765           333            37104          1.3834412e-12
       104   133.50057          41366   378            370            2835           348            37435          1.4048019e-12
       105   136.36674          41731   379            370            2894           365            37723          1.4265051e-12
       106   139.26519          42123   379            370            2962           377            38035          1.4495131e-12
       107   142.20455          42523   379            370            3041           392            38341          1.4732545e-12
       108   145.17629          42903   380            371            3121           408            38623          1.4975337e-12
       109   148.16834          43299   380            371            3195           430            38923          1.5220134e-12
       110   151.28883          43675   380            371            3274           440            39210          1.5464425e-12
       111   154.3478           44071   380            371            3346           466            39508          1.5705219e-12
       112   157.44472          44473   381            371            3434           480            39807          1.5944779e-12
       113   160.59015          44833   381            371            3505           497            40079          1.6180786e-12
       114   163.76626          45208   382            371            3592           511            40352          1.641423e-12 
       115   167.01516          45617   382            371            3675           527            40662          1.6646033e-12
       116   170.31443          45987   382            371            3770           540            40924          1.6880416e-12
       117   173.63887          46395   383            371            3872           544            41225          1.7113232e-12
       118   177.02972          46747   383            371            3947           552            41494          1.7346794e-12
       119   180.47313          47131   384            371            4037           566            41773          1.7585094e-12
       120   184.08959          47526   385            371            4117           587            42066          1.7828189e-12
       121   187.62157          47897   385            371            4202           607            42332          1.8075341e-12
       122   191.19941          48262   385            371            4283           627            42596          1.8325565e-12
       123   194.81724          48643   385            371            4380           642            42865          1.8578283e-12
       124   198.48488          49034   388            371            4467           658            43150          1.8830535e-12
       125   202.1872           49423   389            371            4575           670            43418          1.9086198e-12
       126   205.93406          49789   389            371            4664           688            43677          1.9341005e-12
       127   209.71349          50193   389            371            4744           718            43971          1.959516e-12 
       128   213.58387          50566   390            371            4837           738            44230          1.9844906e-12
       129   217.5002           50944   390            371            4922           764            44497          2.0099314e-12
       130   221.58256          51336   390            371            5033           783            44759          2.0358925e-12
       131   225.60216          51730   391            371            5127           803            45038          2.0619363e-12
       132   229.67942          52135   392            371            5238           823            45311          2.0885978e-12
       133   233.81344          52512   392            371            5334           842            45573          2.1155973e-12
       134   238.01891          52907   392            371            5433           867            45844          2.143018e-12 
       135   242.2696           53319   392            371            5552           887            46117          2.170394e-12 
       136   246.57251          53680   392            371            5642           916            46359          2.1977405e-12
       137   250.93892          54099   392            371            5751           946            46639          2.2255874e-12
       138   255.35846          54480   392            371            5832           982            46903          2.2533232e-12
       139   259.84133          54847   392            371            5939           1002           47143          2.2809565e-12
       140   264.63087          55260   392            371            6036           1041           47420          2.3094246e-12
       141   269.26358          55665   392            371            6137           1085           47680          2.3383025e-12
       142   273.97463          56058   392            371            6239           1128           47928          2.3680377e-12
       143   278.7477           56467   392            371            6349           1171           48184          2.3990035e-12
       144   283.60137          56875   392            371            6449           1216           48447          2.4307219e-12
       145   288.51328          57265   391            371            6555           1257           48691          2.4635331e-12
       146   293.51287          57658   391            370            6654           1302           48941          2.4965908e-12
       147   298.57126          58076   391            370            6785           1345           49185          2.5293346e-12
       148   303.71431          58493   391            370            6884           1398           49450          2.561758e-12 
       149   308.93299          58880   391            370            6980           1449           49690          2.5941989e-12
       150   314.37728          59297   391            370            7079           1500           49957          2.6260564e-12
       151   319.73336          59696   390            369            7191           1559           50187          2.6591285e-12
       152   325.19241          60111   390            369            7304           1609           50439          2.6923608e-12
       153   330.70911          60542   391            368            7406           1665           50712          2.7264758e-12
       154   336.29851          60927   391            368            7504           1725           50939          2.762312e-12 
       155   341.97156          61362   391            368            7634           1781           51188          2.799775e-12 
       156   347.71758          61786   391            366            7735           1848           51446          2.838282e-12 
       157   353.5221           62201   391            366            7863           1898           51683          2.8776498e-12
       158   359.40952          62617   391            365            7983           1959           51919          2.9174488e-12
       159   365.38041          63068   391            365            8124           2014           52174          2.9576639e-12
       160   371.57306          63494   391            364            8248           2077           52414          2.9980977e-12
       161   377.71288          63898   392            364            8362           2137           52643          3.0397187e-12
       162   383.97797          64345   392            364            8490           2211           52888          3.0821673e-12
       163   390.32349          64814   392            363            8648           2267           53144          3.1263634e-12
       164   396.76726          65244   392            363            8782           2333           53374          3.1717301e-12
       165   403.29791          65667   391            363            8925           2384           53604          3.2189292e-12
       166   409.915            66140   391            363            9084           2440           53862          3.267478e-12 
       167   416.60076          66578   390            362            9242           2484           54100          3.3172106e-12
       168   423.38026          67021   390            362            9419           2540           54310          3.3682736e-12
       169   430.23325          67484   390            362            9583           2592           54557          3.4202314e-12
       170   437.33623          67968   390            362            9763           2648           54805          3.4740902e-12
       171   444.37816          68452   391            361            9962           2703           55035          3.5303963e-12
       172   451.53372          68937   391            361            10156          2750           55279          3.5905535e-12
       173   458.77719          69441   390            361            10391          2799           55500          3.6532375e-12
       174   466.11297          69931   390            361            10590          2863           55727          3.7201284e-12
       175   473.57514          70454   390            361            10802          2919           55982          3.7892236e-12
       176   481.1519           70976   390            361            11046          2984           56195          3.8619567e-12
       177   488.91309          71519   390            360            11292          3055           56422          3.9370111e-12
       178   496.74996          72075   390            360            11549          3104           56672          4.0156473e-12
       179   504.71636          72616   390            360            11807          3161           56898          4.0970167e-12
       180   512.99604          73155   387            360            12091          3215           57102          4.1839254e-12
       181   521.27632          73747   387            359            12395          3286           57320          4.2794301e-12
       182   529.71621          74385   387            359            12743          3335           57561          4.3837942e-12
       183   538.29365          75030   385            359            13104          3402           57780          4.4976202e-12
       184   547.07336          75692   385            358            13461          3484           58004          4.6218325e-12
       185   556.06681          76391   384            358            13893          3541           58215          4.7577616e-12
       186   565.23518          77115   380            358            14332          3612           58433          4.8989494e-12
       187   574.56283          77857   379            358            14778          3684           58658          5.0429872e-12
       188   584.16323          78564   378            357            15195          3764           58870          5.1846893e-12
       189   593.92157          79315   375            357            15678          3832           59073          5.3285529e-12
       190   603.96117          80055   371            356            16118          3917           59293          5.4690894e-12
       191   613.97883          80826   371            354            16612          3984           59505          5.6166721e-12
       192   624.03594          81573   371            353            17069          4057           59723          5.7707601e-12
       193   634.17593          82365   368            353            17588          4136           59920          5.9252331e-12
       194   644.4413           83164   365            353            18100          4228           60118          6.0827083e-12
       195   654.78105          83951   365            353            18577          4314           60342          6.2441322e-12
       196   665.18449          84797   365            353            19114          4417           60548          6.4103399e-12
       197   675.63506          85542   362            352            19572          4517           60739          6.5632973e-12
       198   686.10001          86364   359            351            20124          4608           60922          6.7304672e-12
       199   696.60181          87192   358            350            20635          4721           61128          6.9033633e-12
       200   707.39925          88046   354            346            21135          4877           61334          7.0771611e-12
       201   718.03462          88899   353            345            21685          4995           61521          7.2434947e-12
       202   728.70593          89756   351            343            22224          5142           61696          7.4342273e-12
       203   739.37288          90631   349            341            22798          5266           61877          7.6325496e-12
       204   750.06121          91545   349            338            23404          5393           62061          7.8184397e-12
       205   760.7699           92479   345            335            24016          5549           62234          8.0206736e-12
       206   771.54178          93505   339            335            24731          5709           62391          8.230446e-12 
       207   782.35703          94410   336            334            25325          5871           62544          8.4372249e-12
       208   793.19997          95434   335            328            26014          6051           62706          8.6692096e-12
       209   804.10443          96401   328            328            26660          6222           62863          8.899766e-12 
       210   815.2456           97426   323            323            27375          6411           62994          9.1195061e-12
       211   826.2433           98406   314            321            28055          6585           63131          9.3384886e-12
       212   837.31424          99387   312            312            28750          6760           63253          9.5456266e-12
       213   848.36119         100354   307            308            29429          6944           63366          9.7613699e-12
       214   859.49414         101321   302            306            30079          7158           63476          9.9635071e-12
       215   870.68991         102225   302            301            30709          7336           63577          1.01618e-11  
       216   881.90272         103263   295            297            31444          7538           63689          1.0381465e-11
       217   893.18254         104222   292            296            32130          7727           63777          1.0577507e-11
       218   904.49997         105125   288            291            32767          7929           63850          1.0749871e-11
       219   915.87117         106017   283            287            33385          8143           63919          1.0937422e-11
       220   927.4955          106929   275            285            33964          8406           63999          1.1093178e-11
       221   938.91165         107814   269            276            34510          8690           64069          1.1260912e-11
       222   950.38009         108721   262            265            35079          8981           64134          1.142025e-11 
       223   961.82984         109518   257            258            35578          9236           64189          1.1565605e-11
       224   973.33248         110295   250            248            35965          9591           64241          1.1697326e-11
       225   984.87034         111100   243            239            36401          9930           64287          1.1818305e-11
       226   996.46169         111859   236            228            36741          10326          64328          1.1913666e-11
       227   1008.0961         112479   227            221            36941          10719          64371          1.1981649e-11
       228   1019.8203         113126   217            214            37125          11157          64413          1.2058077e-11
       229   1031.5715         113771   210            208            37352          11549          64452          1.2118599e-11
       230   1043.6293         114416   200            195            37589          11948          64484          1.2186379e-11
       231   1055.4639         115045   185            185            37797          12356          64522          1.2230969e-11
       232   1067.3343         115589   177            172            37953          12734          64553          1.2277165e-11
       233   1079.2328         116171   169            165            38156          13104          64577          1.2308818e-11
       234   1091.1894         116777   162            148            38413          13459          64595          1.2362058e-11
       235   1103.1417         117323   156            138            38643          13766          64620          1.2377607e-11
       236   1115.1812         117820   147            128            38784          14109          64652          1.2391493e-11
       237   1127.2334         118280   133            117            38962          14398          64670          1.2396909e-11
       238   1139.3572         118733   125            108            39136          14671          64693          1.2385253e-11
       239   1151.5146         119304   121            99             39462          14906          64716          1.2418663e-11
       240   1164.0226         119783   109            93             39645          15192          64744          1.2407434e-11
       241   1176.284          120162   101            89             39764          15442          64766          1.239391e-11 
       242   1188.6097         120591   98             83             39852          15769          64789          1.2369317e-11
       243   1200.9515         121075   93             76             40000          16096          64810          1.2375863e-11
       244   1213.3762         121469   88             69             40115          16377          64820          1.2351287e-11
       245   1225.8269         121976   82             62             40269          16726          64837          1.236133e-11 
       246   1238.3124         122447   78             58             40366          17085          64860          1.2368593e-11
       247   1250.8251         122751   70             54             40329          17415          64883          1.2322404e-11
       248   1263.3985         123255   68             49             40482          17750          64906          1.2339653e-11
       249   1276.0491         123756   66             45             40607          18113          64925          1.2337592e-11
       250   1289.0358         124097   64             43             40567          18483          64940          1.2312066e-11
       251   1301.8395         124458   58             41             40546          18853          64960          1.2290932e-11
       252   1314.7199         124886   56             39             40620          19189          64982          1.2281053e-11
       253   1327.6144         125283   53             38             40643          19547          65002          1.2275017e-11
       254   1340.5248         125696   52             37             40683          19896          65028          1.2280351e-11
       255   1353.5111         126043   51             36             40703          20207          65046          1.2265455e-11
       256   1366.5345         126433   50             33             40718          20572          65060          1.2248682e-11
       257   1379.6714         126809   47             32             40739          20904          65087          1.2205776e-11
       258   1392.8161         127266   47             31             40865          21214          65109          1.2230187e-11
       259   1406.0189         127571   46             29             40815          21552          65129          1.2216544e-11
       260   1419.6434         127974   44             28             40862          21889          65151          1.2214632e-11
       261   1432.9655         128474   41             27             41029          22205          65172          1.2230885e-11
       262   1446.364          128813   41             26             41039          22513          65194          1.2208566e-11
       263   1459.7563         129255   41             26             41133          22839          65216          1.221967e-11 
       264   1473.1854         129614   41             25             41129          23180          65239          1.2202461e-11
       265   1486.6656         130042   40             25             41192          23522          65263          1.2237061e-11
       266   1500.2128         130382   38             22             41172          23870          65280          1.2218609e-11
       267   1513.8176         130741   38             21             41157          24222          65303          1.2214112e-11
       268   1527.4525         131138   38             20             41183          24572          65325          1.2192699e-11
       269   1541.1111         131507   37             20             41165          24936          65349          1.2182009e-11
       270   1555.0999         131857   36             20             41104          25332          65365          1.2192839e-11
       271   1568.7916         132246   36             20             41055          25745          65390          1.2202403e-11
       272   1582.5251         132622   36             19             40999          26158          65410          1.2195063e-11
       273   1596.2857         132980   36             16             40914          26581          65433          1.2189011e-11
       274   1610.0789         133316   35             16             40797          27015          65453          1.2170762e-11
       275   1623.8899         133715   35             16             40730          27462          65472          1.2184002e-11
       276   1637.7139         134080   35             16             40637          27891          65501          1.2177327e-11
       277   1651.5981         134449   35             16             40554          28328          65516          1.2198789e-11
       278   1665.5402         134734   35             16             40354          28785          65544          1.2176254e-11
       279   1679.5552         135119   35             16             40248          29259          65561          1.2184988e-11
       280   1693.8646         135493   35             16             40109          29750          65583          1.2194017e-11
       281   1708.0132         135857   35             15             39928          30271          65608          1.2176833e-11
       282   1722.2585         136228   34             15             39756          30794          65629          1.2198643e-11
       283   1736.5128         136602   33             15             39606          31293          65655          1.219014e-11 
       284   1750.7866         136888   32             14             39358          31815          65669          1.2217075e-11
       285   1765.1068         137225   32             14             39184          32299          65696          1.2221739e-11
       286   1779.4835         137599   31             14             39077          32764          65713          1.221616e-11 
       287   1793.9379         137938   30             13             38895          33264          65736          1.220054e-11 
       288   1808.42           138307   30             13             38739          33769          65756          1.2220747e-11
       289   1822.9607         138564   30             13             38515          34228          65778          1.2197742e-11
       290   1837.8281         138957   30             13             38436          34680          65798          1.2212116e-11
       291   1852.2759         139247   30             13             38221          35163          65820          1.2242706e-11
       292   1866.8684         139636   29             13             38123          35632          65839          1.2242743e-11
       293   1881.5705         140036   29             13             38049          36084          65861          1.2252776e-11
       294   1896.3519         140377   28             13             37897          36560          65879          1.2258654e-11
       295   1911.0832         140739   28             13             37765          37026          65907          1.2290105e-11
       296   1925.92           141023   28             13             37605          37454          65923          1.2287532e-11
       297   1940.6111         141444   28             13             37577          37881          65945          1.2300552e-11
       298   1955.3219         141721   28             13             37357          38357          65966          1.2319037e-11
       299   1970.2417         141987   28             13             37172          38788          65986          1.2312202e-11
       300   1985.4161         142325   28             13             37099          39177          66008          1.2303425e-11
       301   2000.3302         142717   28             13             37073          39575          66028          1.2330879e-11
       302   2015.4407         143044   28             13             36968          39982          66053          1.2325666e-11
       303   2030.4518         143421   28             13             36951          40358          66071          1.2328248e-11
       304   2045.4224         143725   28             13             36833          40757          66094          1.2358466e-11
       305   2060.4775         144047   28             13             36714          41181          66111          1.2371839e-11
       306   2075.6068         144389   28             13             36669          41541          66138          1.2385712e-11
       307   2090.8116         144778   28             13             36664          41917          66156          1.2404609e-11
       308   2106.0353         145070   28             13             36596          42253          66180          1.2411659e-11
       309   2121.401          145364   28             13             36484          42639          66200          1.2411858e-11
       310   2137.0668         145681   28             13             36442          42977          66221          1.2413566e-11
       311   2152.4067         146047   28             13             36426          43337          66243          1.2433594e-11
       312   2167.8225         146350   28             13             36367          43677          66265          1.2425239e-11
       313   2183.3808         146719   27             13             36367          44029          66283          1.245406e-11 
       314   2198.9123         147021   27             13             36325          44348          66308          1.2464465e-11
       315   2214.4201         147370   27             13             36329          44677          66324          1.2488282e-11
       316   2230.0099         147703   27             13             36297          45016          66350          1.250631e-11 
       317   2245.6562         147965   27             13             36205          45353          66367          1.2484511e-11
       318   2261.2982         148355   27             13             36272          45651          66392          1.251163e-11 
       319   2277.2062         148662   26             13             36197          46015          66411          1.2511439e-11
       320   2293.4298         148948   26             13             36147          46329          66433          1.2513995e-11
Loop time of 2293.43 on 16 procs for 320 steps with 148948 atoms

98.1% CPU use with 16 MPI tasks x 1 OpenMP threads

MPI task timing breakdown:
Section |  min time  |  avg time  |  max time  |%varavg| %total
---------------------------------------------------------------
Pair    | 519.17     | 616.99     | 779.12     | 267.8 | 26.90
Neigh   | 446.25     | 542.07     | 804.65     | 420.2 | 23.64
Comm    | 214.27     | 236.14     | 281.08     | 132.4 | 10.30
Output  | 25.587     | 25.588     | 25.588     |   0.0 |  1.12
Modify  | 415.75     | 860.42     | 1062.7     | 581.9 | 37.52
Other   |            | 12.22      |            |       |  0.53

Nlocal:        9309.25 ave       14619 max        7751 min
Histogram: 7 3 2 1 1 0 0 1 0 1
Nghost:        7118.75 ave        8810 max        6011 min
Histogram: 4 2 0 3 1 2 0 3 0 1
Neighs:        87864.9 ave       99300 max       81549 min
Histogram: 4 2 1 2 3 2 0 0 0 2

Total # of neighbors = 1405839
Ave neighs/atom = 9.438455
Neighbor list builds = 28092
Dangerous builds = 27772

Total wall time: 0:38:42
