LAMMPS (23 Jun 2022 - Update 4)
  using 1 OpenMP thread(s) per MPI task
package omp 0
using multi-threaded neighbor list subroutines
#-----------------------------------------------------------------------------#
#                NUFEB Simulation: Heterotrophic Biofilm Growth               #
#-----------------------------------------------------------------------------#


#-----------------------------System Settings---------------------------------#

units si                                    # using si units (m, s, kg)
atom_style      coccus                      # using nufeb coccus atom style
atom_modify     map array sort 10 0         # map array - find atoms using indices
		                            # sort every 10

boundary        pp pp ff                    # periodic boundaries in x and y
                                            # fixed boundary in z

newton          off                         # forces between local and ghost
                                            # atoms are computed in each
					     # processor without communication

processors      * * 1                       # processor grid

comm_modify     vel yes                     # communicate velocities for ghost atoms

read_data       atom_ch.in	             # read atom.in file which defines domain size
Reading data file ...
  orthogonal box = (0 0 0) to (6e-05 6e-05 6e-05)
  4 by 4 by 1 MPI processor grid
  reading atoms ...
  150 atoms
  read_data CPU = 0.011 seconds
                                            # and initial atoms


#--------------------Microbes and Functional Groups-------------------------#

group           CROSS1   type 1               # assign type 1,2 atoms to CROSS group
50 atoms in group CROSS1
group           CROSS2   type 2
50 atoms in group CROSS2
group		CHEATER  type 3
50 atoms in group CHEATER
group           dead     type 4
0 atoms in group dead

neighbor        5e-7 bin                   # setting neighbour skin distance and style

neigh_modify    check yes                  # rebuild neighbour list if any atom
                                           # had moved more than half the skin distance


#--------------------------Mesh Grid and Substrates--------------------------#

# defining grid sytle, substrate names, and grid size
grid_style      nufeb/chemostat 3 sub metab1 metab2 5e-6

# set diffusion boundary conditions and initial concentrations (liquid:kg/m3)
grid_modify     set sub      pp pp nd  1.8e-4
No /omp style for force computation currently active
grid_modify     set metab1   pp pp nd  1e-4
No /omp style for force computation currently active
grid_modify     set metab2   pp pp nd  1e-4
No /omp style for force computation currently active


#--------------------------Biological Processes-------------------------------#

# heterotrophs growth
fix growth_cross1 CROSS1 nufeb/growth/cross1 sub 3.5e-5 metab2 4e-3 metab1 growth 0.009 yield 0.6 decay 2.6e-6 metab1_exp 20

fix growth_cross2 CROSS2 nufeb/growth/cross2 sub 3.5e-5 metab1 4e-3 metab2 growth 0.009 yield 0.6 decay 2.6e-6 metab2_exp 20

fix growth_cheater CHEATER nufeb/growth/cheater sub 3.5e-5 metab1 1e-3 metab2 1e-3 growth 0.009 yield 0.6 decay 2.6e-6
# heterotrophs division, division diameter: 1.36e-6
fix div1 CROSS1 nufeb/division/coccus 1.36e-6 632
fix div2 CROSS2 nufeb/division/coccus 1.36e-6 2222
fix div3 CHEATER nufeb/division/coccus 1.36e-6 4870

fix death1 CROSS1 nufeb/death/diameter dead 5.43e-7
fix death2 CROSS2 nufeb/death/diameter dead 5.43e-7
fix death3 CHEATER nufeb/death/diameter dead 5.43e-7

#---------------------------Physical Processes--------------------------------#

pair_style  gran/hooke/history 1e-4 NULL 1e-5 NULL 0.0 0    # pairwise interaction
pair_coeff  * *                                             # between atoms

# pairwise interaction between z-wall and atoms
fix wall all wall/gran hooke/history 1e-3 NULL 1e-4 NULL 0 0 zplane 0.0 1e-04

fix vis all viscous 1e-5                                    # viscous damping force

fix grav all gravity 9.81 vector 0.0 0.0 -1.0

fix nve all nve/limit 1e-7                                  # NVE integration with
                                                            # maximum distance limit


#---------------------------Post-Physical Processes---------------------------#

fix coeff_sub all nufeb/diffusion_coeff sub ratio 0.8       # defining diffusion coeff in the biofilm
fix coeff_metab1 all nufeb/diffusion_coeff metab1 ratio 0.8    # region is 80% of the value in liquid
fix coeff_metab2 all nufeb/diffusion_coeff metab2 ratio 0.8

#---------------------------Chemical Processes---------------------------------#

fix diff_sub all nufeb/diffusion_reaction sub 1e-9        # diffusion reaction for updating
fix diff_metab1 all nufeb/diffusion_reaction metab1 4e-9     # distribusion of substrate concentration
fix diff_metab2 all nufeb/diffusion_reaction metab2 4e-9

#--------------------------Computations and Outputs----------------------------#

variable mass equal "mass(all)"                             # total mass
variable ncross1 equal "count(CROSS1)"                      # total # of CROSS1
variable ncross2 equal "count(CROSS2)"                      # total # of CROSS2
variable ncheater equal "count(CHEATER)"
variable ndead equal "count(dead)"

shell mkdir vtk_NEPS_ch                                            # dump vtk files to /vtk folder
dump du1 all vtk 10 vtk_NEPS_ch/dump*.vtu id type diameter         # require build NUFEB with vtk option
dump du2 all grid/vtk 10 vtk_NEPS_ch/dump_%_*.vti con rea den gro

#dump du3 all movie 10 movie.avi type diameter view 80 60    # dump video
#dump_modify du3 acolor 1 blue acolor 2 lightgrey framerate 10


                                                            # dump hdf5 files to /hdf5 folder
#shell mkdir hdf5                                           # require build NUFEB with hdf5 option
#dump du3 all nufeb/hdf5 10 dump.h5 id type x y z vx vy vz fx fy fz radius conc reac

thermo_style custom step cpu atoms v_ncross1 v_ncross2 v_ncheater v_ndead v_mass     # screen and log outputs
thermo 1
thermo_modify   lost ignore

#-----------------------------------Run----------------------------------------#

# issue run command, define timesteps for physical (pairdt) and chemical (diffdt) processes
run_style nufeb diffdt 1e-4 difftol 1e-6 pairdt 1e-2 pairtol 1 pairmax 1000 diffmax 5000

timestep 12000                                               # define biological timesteps (1000s)

run 320                                                    # growing biofilm for 900x1000s
Generated 0 of 6 mixed pair_coeff terms from geometric mixing rule
Last active /omp style is pair_style gran/hooke/history/omp
Neighbor list info ...
  update every 1 steps, delay 10 steps, check yes
  max neighbors/atom: 2000, page size: 100000
  master list distance cutoff = 2.49e-06
  ghost atom cutoff = 2.49e-06
  binsize = 1.245e-06, bins = 49 49 49
  1 neighbor lists, perpetual/occasional/extra = 1 0 0
  (1) pair gran/hooke/history/omp, perpetual
      attributes: half, newton off, size, history, omp
      pair build: half/size/bin/newtoff/omp
      stencil: full/bin/3d
      bin: standard
Per MPI rank memory allocation (min/avg/max) = 11.02 | 11.02 | 11.02 Mbytes
   Step          CPU          Atoms      v_ncross1      v_ncross2      v_ncheater      v_ndead         v_mass    
         0   0                    150   50             50             50             0              1.3295396e-13
         1   0.39180074           273   96             91             86             0              1.9616795e-13
         2   0.76797909           434   150            149            135            0              2.2456487e-13
         3   1.0738654            538   173            190            175            0              2.4642712e-13
         4   1.3737472            587   185            209            193            0              2.658198e-13 
         5   1.5948293            626   197            222            207            0              2.8401139e-13
         6   1.7557567            667   210            234            223            0              3.0145145e-13
         7   1.9152007            712   223            249            240            0              3.1819473e-13
         8   2.0560648            751   232            261            258            0              3.3408585e-13
         9   2.1760291            782   239            275            268            0              3.4898449e-13
        10   2.2975714            820   247            285            288            0              3.6303896e-13
        11   2.3938575            849   255            290            304            0              3.7620504e-13
        12   2.4909179            889   265            301            323            0              3.8879713e-13
        13   2.5767148            911   273            306            332            0              4.0083116e-13
        14   2.6621089            938   280            313            345            0              4.1223229e-13
        15   2.7421783            952   284            316            352            0              4.2307749e-13
        16   2.8279939            987   295            321            371            0              4.3330404e-13
        17   2.9089628           1015   297            326            392            0              4.429826e-13 
        18   2.9798152           1035   300            330            405            0              4.5226181e-13
        19   3.0400282           1060   307            331            422            0              4.6107252e-13
        20   3.1339365           1080   313            335            432            0              4.6937947e-13
        21   3.2055415           1106   318            342            446            0              4.7732516e-13
        22   3.2712133           1132   325            350            457            0              4.8485303e-13
        23   3.3310383           1155   330            352            473            0              4.9207759e-13
        24   3.3824244           1172   333            353            486            0              4.989481e-13 
        25   3.4350273           1191   335            358            498            0              5.0537095e-13
        26   3.5318255           1207   339            360            508            0              5.1156249e-13
        27   3.5991399           1223   344            363            516            0              5.1748934e-13
        28   3.6650757           1239   348            368            523            0              5.2303596e-13
        29   3.7230171           1254   351            369            534            0              5.2826147e-13
        30   3.7973102           1274   353            370            551            0              5.3323393e-13
        31   3.8777854           1288   354            371            563            0              5.3802688e-13
        32   3.9554381           1306   359            372            575            0              5.4270071e-13
        33   4.0084674           1329   363            376            590            0              5.4720078e-13
        34   4.077136            1337   365            376            596            0              5.5148945e-13
        35   4.1257946           1360   371            378            611            0              5.5564004e-13
        36   4.2032954           1377   374            380            623            0              5.5959469e-13
        37   4.2756975           1398   379            381            638            0              5.6344243e-13
        38   4.3692076           1409   382            381            646            0              5.6725054e-13
        39   4.4498515           1417   384            381            652            0              5.7104613e-13
        40   4.5505939           1428   385            383            660            0              5.7477638e-13
        41   4.6375065           1447   387            383            677            0              5.78517e-13  
        42   4.7229985           1464   390            384            690            0              5.8220929e-13
        43   4.831634            1483   391            385            707            0              5.8587735e-13
        44   4.9452487           1498   393            385            720            0              5.8963216e-13
        45   5.0594403           1513   396            387            730            0              5.9344438e-13
        46   5.1590703           1524   397            389            738            0              5.9740118e-13
        47   5.241381            1545   397            390            758            0              6.0128979e-13
        48   5.3201458           1561   398            390            773            0              6.050916e-13 
        49   5.4117848           1571   400            391            780            0              6.0880744e-13
        50   5.5124925           1586   402            391            793            0              6.1250581e-13
        51   5.6029666           1607   403            392            812            0              6.1612627e-13
        52   5.6889259           1621   403            392            826            0              6.1977117e-13
        53   5.7799027           1637   405            392            840            0              6.2332512e-13
        54   5.8528808           1646   405            392            849            0              6.2707073e-13
        55   5.9462306           1666   406            393            867            0              6.3059089e-13
        56   6.0402146           1688   408            393            885            2              6.3427077e-13
        57   6.1293655           1709   410            394            899            6              6.3796781e-13
        58   6.2047592           1728   413            395            914            6              6.4171026e-13
        59   6.2844386           1738   415            395            919            9              6.4538077e-13
        60   6.3699643           1755   415            395            932            13             6.4904622e-13
        61   6.438137            1772   415            395            948            14             6.5259365e-13
        62   6.5060067           1787   415            395            961            16             6.5605774e-13
        63   6.582131            1795   415            396            960            24             6.5944247e-13
        64   6.6479422           1804   415            396            959            34             6.6280849e-13
        65   6.7483887           1821   416            396            963            46             6.6609508e-13
        66   6.8187873           1837   416            396            965            60             6.6946357e-13
        67   6.9247589           1853   416            396            979            62             6.728236e-13 
        68   7.0962234           1864   416            397            983            68             6.7633987e-13
        69   7.2812895           1882   416            397            994            75             6.804012e-13 
        70   7.4820475           1898   416            397            999            86             6.8495663e-13
        71   7.6803404           1909   416            397            1003           93             6.8997245e-13
        72   7.8639899           1935   417            397            1024           97             6.9549029e-13
        73   8.0696728           1949   417            397            1034           101            7.013091e-13 
        74   8.2717101           1976   417            397            1057           105            7.0755156e-13
        75   8.4597171           1995   417            397            1069           112            7.1411363e-13
        76   8.6277902           2027   417            397            1093           120            7.2082492e-13
        77   8.780324            2054   418            397            1115           124            7.2753912e-13
        78   8.9223889           2077   418            397            1130           132            7.3418598e-13
        79   9.0507457           2106   418            397            1154           137            7.4069957e-13
        80   9.1799506           2134   418            397            1177           142            7.4701238e-13
        81   9.2888333           2154   418            397            1190           149            7.5311363e-13
        82   9.3921288           2175   418            397            1205           155            7.589765e-13 
        83   9.4892777           2210   418            397            1235           160            7.6460311e-13
        84   9.62252             2236   418            397            1259           162            7.6997782e-13
        85   9.775002            2262   418            397            1280           167            7.7547859e-13
        86   9.9654021           2288   418            397            1301           172            7.8119671e-13
        87   10.226019           2303   418            397            1309           179            7.869833e-13 
        88   10.494888           2333   419            397            1332           185            7.9341763e-13
        89   10.756267           2358   419            397            1353           189            8.0071126e-13
        90   43.76974            2385   419            397            1372           197            8.0853125e-13
        91   44.04012            2415   419            397            1391           208            8.172204e-13 
        92   44.303399           2455   419            397            1421           218            8.2624543e-13
        93   44.534068           2494   419            399            1444           232            8.3556806e-13
        94   44.726994           2527   419            399            1462           247            8.4490563e-13
        95   44.90846            2563   419            399            1493           252            8.5404745e-13
        96   45.078813           2596   419            399            1519           259            8.6290569e-13
        97   45.231171           2627   419            399            1544           265            8.7145341e-13
        98   45.373193           2662   419            399            1572           272            8.796487e-13 
        99   45.55677            2700   420            399            1599           282            8.8748086e-13
       100   45.81008            2729   421            399            1618           291            8.9549254e-13
       101   46.071188           2760   421            399            1640           300            9.036527e-13 
       102   46.431258           2803   421            398            1680           304            9.1219233e-13
       103   46.824418           2832   421            398            1696           317            9.2226207e-13
       104   47.221299           2880   421            398            1736           325            9.337457e-13 
       105   47.604997           2931   421            398            1781           331            9.4654434e-13
       106   47.970941           2978   421            398            1824           335            9.6019997e-13
       107   48.337327           3029   421            398            1868           342            9.7442139e-13
       108   48.672418           3080   421            398            1912           349            9.8918904e-13
       109   48.973999           3145   421            398            1972           354            1.0041041e-12
       110   49.29397            3213   421            398            2036           358            1.018842e-12 
       111   49.591745           3277   421            396            2097           363            1.0335469e-12
       112   49.889274           3321   421            396            2135           369            1.0480245e-12
       113   50.200546           3388   421            396            2199           372            1.0627979e-12
       114   50.548738           3456   421            395            2263           377            1.0777125e-12
       115   50.907517           3537   421            395            2339           382            1.0926616e-12
       116   51.317585           3605   421            395            2406           383            1.1082194e-12
       117   51.728864           3685   421            395            2483           386            1.1251598e-12
       118   52.137972           3752   421            395            2546           390            1.1428759e-12
       119   52.549953           3828   421            395            2621           391            1.1613297e-12
       120   53.018712           3907   421            395            2695           396            1.1803974e-12
       121   53.431963           3992   421            395            2778           398            1.1996923e-12
       122   53.783931           4081   421            395            2867           398            1.2189526e-12
       123   54.136144           4157   421            394            2939           403            1.2376952e-12
       124   54.444115           4233   421            394            3012           406            1.2560601e-12
       125   54.776117           4310   421            394            3088           407            1.2737734e-12
       126   55.054662           4398   421            394            3174           409            1.2908744e-12
       127   55.43557            4477   421            394            3251           411            1.307271e-12 
       128   55.878576           4562   421            393            3334           414            1.3242841e-12
       129   56.335407           4623   421            393            3393           416            1.3420831e-12
       130   74.017247           4720   421            393            3487           419            1.3607609e-12
       131   74.484251           4807   421            393            3571           422            1.3802133e-12
       132   74.949819           4887   421            392            3645           429            1.4008878e-12
       133   75.421516           4976   421            392            3731           432            1.4222796e-12
       134   75.898293           5071   421            392            3820           438            1.4440381e-12
       135   76.361889           5163   421            392            3905           445            1.4658656e-12
       136   76.796875           5257   421            392            3991           453            1.4874118e-12
       137   77.277796           5343   421            392            4070           460            1.5086482e-12
       138   77.733512           5437   421            392            4154           470            1.5299305e-12
       139   78.20509            5536   421            392            4250           473            1.5512757e-12
       140   78.720447           5622   421            392            4327           482            1.5725251e-12
       141   79.213633           5727   421            392            4421           493            1.5948277e-12
       142   79.709624           5830   421            392            4517           500            1.6181964e-12
       143   80.198142           5929   421            392            4611           505            1.6430951e-12
       144   80.696365           6048   421            392            4721           514            1.6689566e-12
       145   81.219402           6154   421            392            4821           520            1.6958639e-12
       146   81.728711           6280   421            392            4936           531            1.7231087e-12
       147   82.253823           6395   421            392            5041           541            1.7502479e-12
       148   82.792684           6513   421            392            5141           559            1.7777043e-12
       149   83.341513           6651   421            392            5263           575            1.8050639e-12
       150   83.917562           6775   421            392            5371           591            1.8321237e-12
       151   84.497445           6894   421            392            5470           611            1.859495e-12 
       152   85.072721           7022   421            392            5565           644            1.8885793e-12
       153   85.661691           7159   421            392            5670           676            1.918729e-12 
       154   86.236441           7290   421            392            5760           717            1.9508603e-12
       155   86.858384           7437   421            392            5868           756            1.9840166e-12
       156   87.475077           7579   421            392            5960           806            2.018047e-12 
       157   88.093615           7721   421            392            6048           860            2.052712e-12 
       158   88.726386           7878   421            392            6153           912            2.0880401e-12
       159   89.353147           8015   421            392            6247           955            2.1241502e-12
       160   90.122425           8170   421            392            6355           1002           2.1593704e-12
       161   90.894283           8329   421            392            6462           1054           2.1957435e-12
       162   91.563584           8504   421            392            6585           1106           2.2338486e-12
       163   92.255938           8663   421            392            6689           1161           2.273717e-12 
       164   92.951714           8858   421            392            6837           1208           2.3161872e-12
       165   93.658153           9032   421            392            6958           1261           2.3615564e-12
       166   94.345039           9224   421            392            7093           1318           2.4084009e-12
       167   95.039446           9430   421            392            7217           1400           2.4568201e-12
       168   95.749799           9627   421            392            7348           1466           2.506441e-12 
       169   96.469228           9829   421            392            7484           1532           2.5571912e-12
       170   97.264645          10041   421            392            7634           1594           2.6090636e-12
       171   98.046257          10293   421            392            7828           1652           2.6614153e-12
       172   98.878402          10546   421            392            8042           1691           2.7153851e-12
       173   99.710269          10785   421            392            8229           1743           2.7714592e-12
       174   100.59268          11006   421            392            8411           1782           2.8297904e-12
       175   101.53304          11255   421            392            8614           1828           2.8906126e-12
       176   102.46012          11537   421            391            8853           1872           2.9530242e-12
       177   103.41289          11790   421            391            9055           1923           3.019082e-12 
       178   104.41854          12070   421            391            9289           1969           3.0875386e-12
       179   105.47483          12366   420            391            9535           2020           3.1581535e-12
       180   106.59235          12657   420            391            9774           2072           3.2314327e-12
       181   107.68515          12953   420            391            10021          2121           3.3068682e-12
       182   108.86275          13262   420            391            10281          2170           3.3871639e-12
       183   110.10256          13593   419            391            10568          2215           3.4738095e-12
       184   111.42705          13943   419            391            10875          2258           3.5674092e-12
       185   112.89108          14324   419            390            11222          2293           3.6698975e-12
       186   114.63223          14712   419            390            11564          2339           3.7805191e-12
       187   116.44231          15115   419            390            11924          2382           3.8995419e-12
       188   118.40117          15530   419            390            12285          2436           4.0208707e-12
       189   120.56742          15978   419            390            12681          2488           4.1507982e-12
       190   123.1251           16448   419            390            13096          2543           4.2850011e-12
       191   125.85123          16916   419            390            13502          2605           4.4174585e-12
       192   128.7186           17353   419            390            13869          2675           4.5445488e-12
       193   131.62895          17840   419            390            14281          2750           4.68404e-12  
       194   134.52977          18377   419            390            14767          2801           4.828734e-12 
       195   137.49799          18871   418            390            15214          2849           4.9770739e-12
       196   140.49138          19381   418            389            15676          2898           5.1216423e-12
       197   143.5108           19945   417            389            16197          2942           5.272012e-12 
       198   146.54904          20483   417            389            16672          3005           5.4250339e-12
       199   149.56758          21043   417            389            17161          3076           5.5799752e-12
       200   152.63774          21586   417            388            17636          3145           5.7242975e-12
       201   155.71363          22184   417            388            18161          3218           5.883786e-12 
       202   158.76758          22765   417            387            18653          3308           6.0371285e-12
       203   161.79683          23378   417            387            19194          3380           6.1976392e-12
       204   164.79331          24013   416            385            19750          3462           6.3662713e-12
       205   167.77052          24705   416            385            20371          3533           6.5482819e-12
       206   170.76655          25326   414            385            20895          3632           6.7105958e-12
       207   173.7667           26000   412            384            21486          3718           6.8889874e-12
       208   176.82519          26661   411            384            22035          3831           7.062732e-12 
       209   179.83641          27376   410            383            22636          3947           7.2543859e-12
       210   182.90573          28079   409            381            23200          4089           7.4479759e-12
       211   185.95826          28803   408            376            23795          4224           7.6394541e-12
       212   189.00213          29526   407            374            24374          4371           7.8287968e-12
       213   192.02558          30261   405            372            24939          4545           8.0218218e-12
       214   195.06             31013   402            364            25502          4745           8.2181376e-12
       215   198.1261           31746   398            362            26035          4951           8.4127346e-12
       216   201.14288          32573   397            362            26665          5149           8.6196305e-12
       217   204.16438          33347   392            359            27204          5392           8.8320897e-12
       218   207.21546          34157   387            357            27754          5659           9.0276978e-12
       219   210.27086          34987   386            351            28320          5930           9.2335865e-12
       220   213.42049          35773   380            347            28828          6218           9.4427007e-12
       221   216.54006          36572   373            340            29360          6499           9.6206669e-12
       222   219.60511          37404   360            333            29907          6804           9.8290786e-12
       223   222.71614          38214   349            323            30423          7119           1.0007405e-11
       224   225.85714          38932   340            313            30818          7461           1.0178901e-11
       225   228.97376          39734   329            309            31271          7825           1.034394e-11 
       226   232.08933          40490   318            297            31746          8129           1.0514742e-11
       227   235.20695          41199   299            273            32155          8472           1.0650398e-11
       228   238.35377          41904   280            262            32590          8772           1.0799274e-11
       229   241.50257          42663   259            251            33095          9058           1.0923912e-11
       230   244.74263          43369   237            234            33572          9326           1.1051315e-11
       231   247.92378          43943   221            218            33948          9556           1.1134503e-11
       232   251.14223          44560   197            197            34373          9793           1.1235889e-11
       233   254.36059          45150   175            168            34813          9994           1.1301585e-11
       234   257.56688          45776   153            151            35298          10174          1.1392457e-11
       235   260.81751          46381   134            130            35766          10351          1.1478472e-11
       236   264.11198          46952   111            108            36195          10538          1.1530759e-11
       237   267.37264          47497   96             94             36584          10723          1.157469e-11 
       238   270.64476          48057   73             81             37016          10887          1.1653645e-11
       239   273.95069          48538   64             64             37316          11094          1.1665376e-11
       240   277.34905          49119   47             43             37696          11333          1.1723481e-11
       241   280.72473          49575   37             28             37930          11580          1.1722072e-11
       242   284.07501          50099   28             22             38217          11832          1.1752735e-11
       243   287.43353          50500   21             19             38349          12111          1.1765455e-11
       244   290.84102          50984   13             16             38526          12429          1.1796428e-11
       245   294.26627          51478   5              11             38720          12742          1.1812272e-11
       246   297.70463          51907   4              9              38822          13072          1.1808876e-11
       247   301.16293          52395   2              6              38982          13405          1.1824553e-11
       248   304.59691          52714   1              2              38971          13740          1.1807559e-11
       249   308.07169          53164   1              1              39068          14094          1.180431e-11 
       250   311.7046           53662   1              1              39174          14486          1.1830992e-11
       251   315.23449          54015   1              1              39209          14804          1.1803959e-11
       252   318.79262          54451   1              1              39321          15128          1.1803632e-11
       253   322.41201          54817   1              0              39399          15417          1.1812943e-11
       254   326.01871          55203   1              0              39452          15750          1.1788979e-11
       255   329.63785          55618   1              0              39581          16036          1.178668e-11 
       256   333.29878          55948   1              0              39605          16342          1.1759526e-11
       257   336.9568           56346   1              0              39663          16682          1.1779136e-11
       258   340.6318           56794   1              0              39819          16974          1.1780678e-11
       259   344.39473          57258   1              0              39992          17265          1.1787031e-11
       260   348.30769          57548   1              0              39993          17554          1.1789042e-11
       261   352.09263          57907   1              0              40047          17859          1.1778424e-11
       262   355.91246          58282   1              0              40123          18158          1.1765406e-11
       263   359.78218          58729   1              0              40269          18459          1.1789024e-11
       264   363.62579          59035   1              0              40257          18777          1.1744005e-11
       265   367.59628          59358   1              0              40260          19097          1.1734393e-11
       266   371.64043          59737   1              0              40345          19391          1.1730284e-11
       267   375.69929          60076   1              0              40398          19677          1.1733194e-11
       268   379.75373          60472   1              0              40473          19998          1.1729271e-11
       269   383.82395          60844   1              0              40506          20337          1.1723381e-11
       270   388.13606          61172   1              0              40504          20667          1.1703992e-11
       271   392.26623          61532   1              0              40541          20990          1.1727173e-11
       272   396.45847          61852   1              0              40512          21339          1.1706482e-11
       273   400.73949          62204   1              0              40525          21678          1.1700566e-11
       274   404.97865          62616   1              0              40619          21996          1.1734592e-11
       275   409.26493          62898   1              0              40579          22318          1.1699492e-11
       276   413.55271          63249   1              0              40552          22696          1.1693862e-11
       277   417.8178           63615   1              0              40577          23037          1.1701519e-11
       278   422.17565          63880   1              0              40450          23429          1.1682224e-11
       279   426.55223          64249   1              0              40432          23816          1.1686616e-11
       280   431.03894          64631   1              0              40437          24193          1.1711089e-11
       281   435.43863          64946   1              0              40316          24629          1.1699698e-11
       282   439.86647          65250   1              0              40206          25043          1.1679307e-11
       283   444.20862          65588   1              0              40090          25497          1.1689413e-11
       284   448.69751          65910   1              0              39950          25959          1.1683437e-11
       285   453.22168          66204   1              0              39764          26439          1.1688081e-11
       286   457.79878          66507   1              0              39593          26913          1.1675774e-11
       287   462.30659          66926   1              0              39562          27363          1.1700242e-11
       288   466.78075          67194   1              0              39376          27817          1.1686877e-11
       289   471.33826          67530   1              0              39255          28274          1.1683725e-11
       290   475.9947           67828   1              0              39075          28752          1.1703347e-11
       291   480.68464          68038   1              0              38837          29200          1.167663e-11 
       292   485.24349          68533   1              0              38853          29679          1.1726722e-11
       293   489.92545          68765   1              0              38591          30173          1.1719411e-11
       294   494.60824          69142   1              0              38514          30627          1.1722453e-11
       295   499.26237          69424   1              0              38343          31080          1.1730153e-11
       296   503.90098          69815   1              0              38256          31558          1.176515e-11 
       297   508.58428          70117   1              0              38048          32068          1.1767836e-11
       298   513.3529           70449   1              0              37926          32522          1.177798e-11 
       299   518.14868          70789   1              0              37784          33004          1.1792395e-11
       300   523.17255          71063   1              0              37588          33474          1.1786839e-11
       301   528.00768          71372   1              0              37439          33932          1.1796264e-11
       302   532.88507          71684   1              0              37367          34316          1.1793175e-11
       303   537.76477          71999   1              0              37243          34755          1.1802984e-11
       304   542.71294          72312   1              0              37101          35210          1.1800964e-11
       305   547.63455          72612   1              0              36977          35634          1.1821165e-11
       306   552.66437          72868   1              0              36820          36047          1.1810834e-11
       307   557.6399           73228   1              0              36801          36426          1.1835301e-11
       308   562.83791          73467   1              0              36643          36823          1.1812173e-11
       309   567.75999          73848   1              0              36631          37216          1.1854945e-11
       310   572.96564          74120   1              0              36535          37584          1.1858575e-11
       311   578.06787          74447   1              0              36518          37928          1.1861178e-11
       312   583.11599          74717   1              0              36402          38314          1.1889421e-11
       313   588.26069          75001   1              0              36334          38666          1.1891016e-11
       314   593.48905          75322   1              0              36277          39044          1.1893185e-11
       315   598.6803           75659   1              0              36223          39435          1.189759e-11 
       316   603.87431          76011   1              0              36244          39766          1.1916179e-11
       317   609.14681          76203   1              0              36127          40075          1.1916447e-11
       318   614.42348          76516   1              0              36082          40433          1.1939151e-11
       319   619.74895          76779   1              0              35986          40792          1.1947605e-11
       320   625.40754          77111   1              0              35941          41169          1.1937557e-11
Loop time of 625.408 on 16 procs for 320 steps with 77111 atoms

95.0% CPU use with 16 MPI tasks x 1 OpenMP threads

MPI task timing breakdown:
Section |  min time  |  avg time  |  max time  |%varavg| %total
---------------------------------------------------------------
Pair    | 81.038     | 122.11     | 215.35     | 307.6 | 19.52
Neigh   | 13.417     | 30.706     | 96.894     | 363.9 |  4.91
Comm    | 65.518     | 81.736     | 106.67     | 130.5 | 13.07
Output  | 52.131     | 52.131     | 52.132     |   0.0 |  8.34
Modify  | 150.34     | 310        | 380.43     | 330.5 | 49.57
Other   |            | 28.72      |            |       |  4.59

Nlocal:        4819.44 ave       11700 max        3303 min
Histogram: 10 1 2 0 2 0 0 0 0 1
Nghost:        3647.56 ave        6327 max        2628 min
Histogram: 6 2 2 2 1 0 2 0 0 1
Neighs:        37185.9 ave       54561 max       28811 min
Histogram: 1 5 3 1 3 1 1 0 0 1

Total # of neighbors = 594974
Ave neighs/atom = 7.7158123
Neighbor list builds = 4414
Dangerous builds = 374

Total wall time: 0:10:25
