LAMMPS (23 Jun 2022 - Update 4)
  using 1 OpenMP thread(s) per MPI task
package omp 0
using multi-threaded neighbor list subroutines
#-----------------------------------------------------------------------------#
#                NUFEB Simulation: Heterotrophic Biofilm Growth               #
#-----------------------------------------------------------------------------#


#-----------------------------System Settings---------------------------------#

units si                                    # using si units (m, s, kg)
atom_style      coccus                      # using nufeb coccus atom style
atom_modify     map array sort 10 0         # map array - find atoms using indices
		                            # sort every 10

boundary        pp pp ff                    # periodic boundaries in x and y
                                            # fixed boundary in z

newton          off                         # forces between local and ghost
                                            # atoms are computed in each
					     # processor without communication

processors      * * 1                       # processor grid

comm_modify     vel yes                     # communicate velocities for ghost atoms

read_data       atom_ch.in	             # read atom.in file which defines domain size
Reading data file ...
  orthogonal box = (0 0 0) to (6e-05 6e-05 6e-05)
  4 by 4 by 1 MPI processor grid
  reading atoms ...
  150 atoms
  read_data CPU = 0.026 seconds
                                            # and initial atoms


#--------------------Microbes and Functional Groups-------------------------#

group           CROSS1   type 1               # assign type 1,2 atoms to CROSS group
50 atoms in group CROSS1
group           CROSS2   type 2
50 atoms in group CROSS2
group		CHEATER  type 3
50 atoms in group CHEATER
group           dead     type 4
0 atoms in group dead

neighbor        5e-7 bin                   # setting neighbour skin distance and style

neigh_modify    check yes                  # rebuild neighbour list if any atom
                                           # had moved more than half the skin distance


#--------------------------Mesh Grid and Substrates--------------------------#

# defining grid sytle, substrate names, and grid size
grid_style      nufeb/chemostat 3 sub metab1 metab2 5e-6

# set diffusion boundary conditions and initial concentrations (liquid:kg/m3)
grid_modify     set sub      pp pp nd  1.8e-4
No /omp style for force computation currently active
grid_modify     set metab1   pp pp nd  1e-4
No /omp style for force computation currently active
grid_modify     set metab2   pp pp nd  1e-4
No /omp style for force computation currently active


#--------------------------Biological Processes-------------------------------#

# heterotrophs growth
fix growth_cross1 CROSS1 nufeb/growth/cross1 sub 3.5e-5 metab2 4e-3 metab1 growth 0.009 yield 0.6 decay 2.6e-6 metab1_exp 20

fix growth_cross2 CROSS2 nufeb/growth/cross2 sub 3.5e-5 metab1 4e-3 metab2 growth 0.009 yield 0.6 decay 2.6e-6 metab2_exp 20

fix growth_cheater CHEATER nufeb/growth/cheater sub 3.5e-5 metab1 1e-3 metab2 1e-3 growth 0.009 yield 0.6 decay 2.6e-6
# heterotrophs division, division diameter: 1.36e-6
fix div1 CROSS1 nufeb/division/coccus 1.36e-6 128
fix div2 CROSS2 nufeb/division/coccus 1.36e-6 206
fix div3 CHEATER nufeb/division/coccus 1.36e-6 334

fix death1 CROSS1 nufeb/death/diameter dead 5.43e-7
fix death2 CROSS2 nufeb/death/diameter dead 5.43e-7
fix death3 CHEATER nufeb/death/diameter dead 5.43e-7

#---------------------------Physical Processes--------------------------------#

pair_style  gran/hooke/history 1e-4 NULL 1e-5 NULL 0.0 0    # pairwise interaction
pair_coeff  * *                                             # between atoms

# pairwise interaction between z-wall and atoms
fix wall all wall/gran hooke/history 1e-3 NULL 1e-4 NULL 0 0 zplane 0.0 1e-04

fix vis all viscous 1e-5                                    # viscous damping force

fix grav all gravity 9.81 vector 0.0 0.0 -1.0

fix nve all nve/limit 1e-7                                  # NVE integration with
                                                            # maximum distance limit


#---------------------------Post-Physical Processes---------------------------#

fix coeff_sub all nufeb/diffusion_coeff sub ratio 0.8       # defining diffusion coeff in the biofilm
fix coeff_metab1 all nufeb/diffusion_coeff metab1 ratio 0.8    # region is 80% of the value in liquid
fix coeff_metab2 all nufeb/diffusion_coeff metab2 ratio 0.8

#---------------------------Chemical Processes---------------------------------#

fix diff_sub all nufeb/diffusion_reaction sub 1e-9        # diffusion reaction for updating
fix diff_metab1 all nufeb/diffusion_reaction metab1 4e-9     # distribusion of substrate concentration
fix diff_metab2 all nufeb/diffusion_reaction metab2 4e-9

#--------------------------Computations and Outputs----------------------------#

variable mass equal "mass(all)"                             # total mass
variable ncross1 equal "count(CROSS1)"                      # total # of CROSS1
variable ncross2 equal "count(CROSS2)"                      # total # of CROSS2
variable ncheater equal "count(CHEATER)"
variable ndead equal "count(dead)"

shell mkdir vtk_NEPS_ch                                            # dump vtk files to /vtk folder
dump du1 all vtk 10 vtk_NEPS_ch/dump*.vtu id type diameter         # require build NUFEB with vtk option
dump du2 all grid/vtk 10 vtk_NEPS_ch/dump_%_*.vti con rea den gro

#dump du3 all movie 10 movie.avi type diameter view 80 60    # dump video
#dump_modify du3 acolor 1 blue acolor 2 lightgrey framerate 10


                                                            # dump hdf5 files to /hdf5 folder
#shell mkdir hdf5                                           # require build NUFEB with hdf5 option
#dump du3 all nufeb/hdf5 10 dump.h5 id type x y z vx vy vz fx fy fz radius conc reac

thermo_style custom step cpu atoms v_ncross1 v_ncross2 v_ncheater v_ndead v_mass     # screen and log outputs
thermo 1
thermo_modify   lost ignore

#-----------------------------------Run----------------------------------------#

# issue run command, define timesteps for physical (pairdt) and chemical (diffdt) processes
run_style nufeb diffdt 1e-4 difftol 1e-6 pairdt 1e-2 pairtol 1 pairmax 1000 diffmax 5000

timestep 12000                                               # define biological timesteps (1000s)

run 320                                                    # growing biofilm for 900x1000s
Generated 0 of 6 mixed pair_coeff terms from geometric mixing rule
Last active /omp style is pair_style gran/hooke/history/omp
Neighbor list info ...
  update every 1 steps, delay 10 steps, check yes
  max neighbors/atom: 2000, page size: 100000
  master list distance cutoff = 2.49e-06
  ghost atom cutoff = 2.49e-06
  binsize = 1.245e-06, bins = 49 49 49
  1 neighbor lists, perpetual/occasional/extra = 1 0 0
  (1) pair gran/hooke/history/omp, perpetual
      attributes: half, newton off, size, history, omp
      pair build: half/size/bin/newtoff/omp
      stencil: full/bin/3d
      bin: standard
Per MPI rank memory allocation (min/avg/max) = 11.02 | 11.02 | 11.02 Mbytes
   Step          CPU          Atoms      v_ncross1      v_ncross2      v_ncheater      v_ndead         v_mass    
         0   0                    150   50             50             50             0              1.3295396e-13
         1   0.39148052           273   96             91             86             0              1.9616795e-13
         2   0.78187011           432   149            148            135            0              2.238371e-13 
         3   1.0957605            540   173            195            172            0              2.4569942e-13
         4   1.3890763            594   186            218            190            0              2.6499149e-13
         5   1.573837             632   195            233            204            0              2.8292976e-13
         6   1.7379066            663   199            241            223            0              2.999481e-13 
         7   1.8680119            701   212            251            238            0              3.1591606e-13
         8   1.9943526            744   226            264            254            0              3.3104913e-13
         9   2.1055197            778   240            276            262            0              3.4524441e-13
        10   2.2651153            815   249            288            278            0              3.5882534e-13
        11   2.3956128            853   259            295            299            0              3.7189437e-13
        12   2.5064396            879   267            302            310            0              3.8436901e-13
        13   2.6017933            899   268            309            322            0              3.9612057e-13
        14   2.6858626            928   280            313            335            0              4.0735545e-13
        15   2.7870082            952   288            319            345            0              4.1808731e-13
        16   2.8776711            978   292            324            362            0              4.2828128e-13
        17   2.963411            1002   299            327            376            0              4.3792333e-13
        18   3.0309409           1029   303            336            390            0              4.4705151e-13
        19   3.1154866           1054   307            341            406            0              4.5566089e-13
        20   3.2222895           1087   315            349            423            0              4.64005e-13  
        21   3.2916418           1101   318            351            432            0              4.7199254e-13
        22   3.3754716           1123   322            357            444            0              4.7968009e-13
        23   3.4746985           1147   329            363            455            0              4.8709898e-13
        24   3.5792728           1173   335            369            469            0              4.9441593e-13
        25   3.6760659           1197   338            371            488            0              5.0151954e-13
        26   3.7917204           1215   339            375            501            0              5.0857928e-13
        27   3.8941319           1234   340            377            517            0              5.1563538e-13
        28   4.0058656           1251   343            380            528            0              5.2252222e-13
        29   4.1406787           1277   344            383            550            0              5.2935706e-13
        30   12.109071           1297   347            386            564            0              5.3641019e-13
        31   12.241359           1323   352            388            583            0              5.4360284e-13
        32   12.366287           1347   356            392            599            0              5.5066801e-13
        33   12.485665           1365   357            393            615            0              5.5778297e-13
        34   12.641501           1386   358            395            633            0              5.6493867e-13
        35   12.780267           1415   360            396            659            0              5.7225318e-13
        36   12.931223           1439   366            397            676            0              5.7959234e-13
        37   13.046135           1461   369            398            694            0              5.8705207e-13
        38   13.155256           1484   370            399            715            0              5.9433374e-13
        39   13.300473           1504   372            401            731            0              6.0159767e-13
        40   13.461265           1538   373            403            762            0              6.0892483e-13
        41   13.591665           1569   374            406            789            0              6.1632112e-13
        42   13.733789           1587   376            406            805            0              6.2371594e-13
        43   13.887512           1610   377            407            826            0              6.312321e-13 
        44   14.00669            1637   379            408            850            0              6.3885999e-13
        45   14.140535           1661   379            409            873            0              6.4636939e-13
        46   14.261562           1684   379            409            896            0              6.5387432e-13
        47   14.380284           1714   379            409            926            0              6.6131141e-13
        48   14.538245           1748   382            409            957            0              6.6864729e-13
        49   14.703979           1768   384            409            975            0              6.7632924e-13
        50   25.90972            1799   385            411            1003           0              6.8417049e-13
        51   26.104042           1839   389            411            1039           0              6.920656e-13 
        52   26.267411           1863   389            411            1062           1              7.0024314e-13
        53   26.484195           1888   390            411            1085           2              7.0843378e-13
        54   26.692961           1923   391            411            1118           3              7.1714425e-13
        55   26.93715            1943   391            411            1136           5              7.2611092e-13
        56   27.157572           1978   391            411            1171           5              7.3564604e-13
        57   27.378867           2012   391            411            1202           8              7.4537246e-13
        58   27.595768           2048   391            411            1234           12             7.5537671e-13
        59   27.814828           2091   391            411            1271           18             7.6543358e-13
        60   28.049489           2129   391            411            1302           25             7.7579212e-13
        61   28.244254           2164   392            411            1330           31             7.8606931e-13
        62   28.441918           2199   392            411            1358           38             7.9635036e-13
        63   28.623781           2231   392            411            1384           44             8.0656689e-13
        64   28.797557           2274   393            411            1419           51             8.1665441e-13
        65   28.955992           2317   393            411            1453           60             8.2663909e-13
        66   29.106232           2347   393            411            1474           69             8.3639036e-13
        67   29.299339           2385   393            411            1507           74             8.4597499e-13
        68   29.484743           2425   393            411            1544           77             8.557173e-13 
        69   30.007913           2462   393            411            1575           83             8.6539987e-13
        70   30.292609           2505   394            411            1601           99             8.7539748e-13
        71   30.527272           2543   394            412            1629           108            8.8586489e-13
        72   30.838713           2590   394            412            1673           111            8.9661062e-13
        73   31.145533           2640   394            412            1714           120            9.0824773e-13
        74   31.433603           2686   394            412            1754           126            9.2046959e-13
        75   31.726803           2735   394            412            1795           134            9.3299869e-13
        76   32.022434           2779   394            412            1833           140            9.4601273e-13
        77   32.309574           2825   394            412            1870           149            9.5936862e-13
        78   32.610932           2883   394            412            1922           155            9.7301934e-13
        79   32.936524           2937   395            412            1969           161            9.8715889e-13
        80   33.246406           2992   395            412            2018           167            1.0018029e-12
        81   33.521826           3044   396            412            2066           170            1.0166433e-12
        82   33.802613           3113   396            411            2129           177            1.031526e-12 
        83   34.103567           3175   396            411            2186           182            1.0465151e-12
        84   34.391677           3231   395            410            2230           196            1.0618774e-12
        85   34.702054           3294   395            410            2287           202            1.0771929e-12
        86   35.181057           3360   396            410            2339           215            1.0930589e-12
        87   35.522849           3422   396            409            2388           229            1.1089214e-12
        88   35.886658           3489   396            407            2445           241            1.1254123e-12
        89   36.244622           3554   396            407            2505           246            1.1425625e-12
        90   36.637451           3648   395            407            2586           260            1.1603989e-12
        91   36.997772           3726   395            407            2659           265            1.178485e-12 
        92   37.376765           3796   395            407            2718           276            1.1971708e-12
        93   37.735386           3889   394            407            2800           288            1.2164845e-12
        94   38.116701           3967   393            407            2867           300            1.2359931e-12
        95   38.488459           4047   392            407            2940           308            1.2561153e-12
        96   38.838126           4125   392            407            3009           317            1.2764269e-12
        97   39.187971           4217   391            407            3095           324            1.296811e-12 
        98   39.517893           4322   391            406            3193           332            1.3172425e-12
        99   39.885367           4398   389            406            3255           348            1.3373859e-12
       100   40.252345           4491   389            406            3343           353            1.3578819e-12
       101   40.59023            4583   388            406            3427           362            1.378456e-12 
       102   40.950022           4664   388            406            3501           369            1.3987996e-12
       103   41.304827           4763   388            406            3594           375            1.4192629e-12
       104   41.693361           4852   388            404            3681           379            1.4396595e-12
       105   42.083499           4953   387            404            3771           391            1.4605781e-12
       106   42.474322           5047   387            404            3858           398            1.4819298e-12
       107   42.864947           5152   385            404            3958           405            1.5035721e-12
       108   43.242356           5249   385            403            4051           410            1.5256756e-12
       109   43.630349           5347   385            403            4146           413            1.54776e-12  
       110   44.043404           5459   385            402            4254           418            1.5699811e-12
       111   44.41854            5571   385            402            4360           424            1.5922851e-12
       112   44.772283           5673   385            402            4458           428            1.6144706e-12
       113   45.260918           5771   384            401            4551           435            1.6363034e-12
       114   45.62708            5880   384            401            4655           440            1.6576953e-12
       115   45.967037           5976   384            401            4748           443            1.6790357e-12
       116   46.359923           6089   383            400            4857           449            1.6999587e-12
       117   46.762193           6198   383            400            4962           453            1.7213767e-12
       118   47.166614           6305   383            400            5063           459            1.7432132e-12
       119   47.567181           6411   383            399            5163           466            1.7653918e-12
       120   47.999515           6517   383            399            5264           471            1.7876078e-12
       121   48.394428           6625   383            399            5363           480            1.810136e-12 
       122   48.782431           6730   383            399            5456           492            1.8331295e-12
       123   49.173977           6856   382            399            5565           510            1.8563386e-12
       124   49.573477           6978   382            399            5678           519            1.879701e-12 
       125   49.978146           7087   382            399            5774           532            1.9033648e-12
       126   50.417395           7203   382            399            5867           555            1.9270628e-12
       127   50.842553           7334   382            399            5978           575            1.9509294e-12
       128   51.244703           7445   382            399            6069           595            1.9751872e-12
       129   51.666487           7556   382            399            6157           618            1.9991017e-12
       130   52.11603            7695   382            399            6262           652            2.0238127e-12
       131   52.528157           7802   381            399            6325           697            2.0493681e-12
       132   52.951117           7931   380            399            6415           737            2.0750055e-12
       133   53.370285           8058   380            399            6504           775            2.1015306e-12
       134   53.799316           8200   380            399            6605           816            2.1286959e-12
       135   54.211005           8340   380            399            6697           864            2.1563972e-12
       136   54.630556           8493   380            398            6809           906            2.184783e-12 
       137   55.058478           8637   379            398            6916           944            2.2138185e-12
       138   55.511259           8780   379            398            7014           989            2.2429738e-12
       139   55.930244           8925   379            398            7117           1031           2.2720677e-12
       140   56.388431           9075   379            398            7209           1089           2.3012334e-12
       141   56.810074           9233   378            398            7311           1146           2.3307991e-12
       142   57.259566           9396   378            397            7406           1215           2.3606965e-12
       143   57.696544           9543   378            397            7489           1279           2.3920523e-12
       144   58.131364           9714   378            397            7605           1334           2.4240679e-12
       145   58.580416           9849   378            396            7684           1391           2.4567539e-12
       146   59.021734          10024   378            396            7799           1451           2.4905571e-12
       147   59.479188          10204   378            396            7928           1502           2.5252381e-12
       148   59.928306          10384   378            396            8059           1551           2.5610407e-12
       149   60.399642          10539   378            396            8160           1605           2.5966326e-12
       150   60.902336          10713   378            395            8286           1654           2.632619e-12 
       151   61.395233          10896   376            394            8416           1710           2.6684939e-12
       152   61.869904          11067   376            394            8543           1754           2.7045274e-12
       153   62.367993          11259   376            392            8689           1802           2.7412038e-12
       154   62.847025          11438   375            390            8822           1851           2.7785532e-12
       155   63.330293          11609   375            390            8934           1910           2.8165587e-12
       156   63.828697          11806   375            390            9071           1970           2.8568853e-12
       157   64.327522          11991   375            390            9204           2022           2.8997949e-12
       158   64.843384          12208   375            390            9365           2078           2.9449203e-12
       159   65.39926           12453   375            390            9540           2148           2.9913819e-12
       160   65.982834          12674   374            390            9687           2223           3.0388438e-12
       161   66.504901          12889   374            390            9835           2290           3.0870773e-12
       162   67.031404          13113   374            390            9980           2369           3.1364949e-12
       163   67.569118          13336   373            390            10141          2432           3.1860346e-12
       164   68.112731          13575   373            389            10318          2495           3.23595e-12  
       165   68.676949          13819   371            389            10498          2561           3.2874572e-12
       166   69.24265           14045   371            389            10659          2626           3.3424764e-12
       167   69.816847          14289   370            389            10838          2692           3.4000438e-12
       168   70.443583          14560   370            389            11028          2773           3.4608472e-12
       169   71.068169          14836   370            388            11245          2833           3.5259029e-12
       170   71.765441          15116   369            387            11444          2916           3.5939142e-12
       171   72.373491          15418   367            387            11661          3003           3.6655578e-12
       172   72.983275          15715   367            386            11882          3080           3.7399565e-12
       173   73.629402          16007   365            384            12103          3155           3.8170977e-12
       174   74.303536          16367   364            383            12406          3214           3.8978796e-12
       175   75.056447          16720   363            383            12682          3292           3.9841377e-12
       176   75.841927          17084   363            383            12970          3368           4.0761707e-12
       177   76.671006          17476   363            383            13274          3456           4.1773901e-12
       178   77.554628          17852   362            381            13579          3530           4.2861587e-12
       179   78.564314          18310   362            379            13960          3609           4.4028796e-12
       180   79.616965          18739   362            378            14304          3695           4.5270197e-12
       181   80.793829          19245   362            375            14729          3779           4.6606933e-12
       182   82.06156           19703   361            373            15090          3879           4.7970868e-12
       183   83.483535          20233   360            372            15519          3982           4.9383538e-12
       184   84.9284            20727   359            369            15931          4068           5.0769186e-12
       185   86.539686          21273   356            368            16373          4176           5.2175174e-12
       186   88.253827          21783   353            367            16792          4271           5.3584996e-12
       187   90.070858          22322   352            366            17242          4362           5.500663e-12 
       188   91.915209          22898   350            364            17713          4471           5.6549478e-12
       189   93.838549          23460   347            362            18192          4559           5.8060186e-12
       190   95.874958          24031   345            360            18688          4638           5.9571971e-12
       191   97.916933          24598   343            359            19177          4719           6.1148788e-12
       192   99.99845           25258   338            358            19742          4820           6.2825298e-12
       193   102.13724          25923   334            356            20311          4922           6.4561146e-12
       194   104.30587          26513   330            354            20796          5033           6.6299717e-12
       195   106.50591          27192   328            349            21381          5134           6.8272538e-12
       196   108.72672          27953   327            348            22004          5274           7.0266746e-12
       197   110.96773          28647   323            343            22581          5400           7.2123751e-12
       198   113.21722          29340   317            343            23152          5528           7.3982167e-12
       199   115.49635          30067   312            337            23761          5657           7.5871561e-12
       200   117.88751          30776   307            332            24358          5779           7.7791096e-12
       201   120.25335          31539   302            327            24972          5938           7.9800438e-12
       202   122.64435          32280   294            321            25580          6085           8.1571456e-12
       203   125.10475          33092   290            308            26232          6262           8.3634646e-12
       204   127.57694          33887   287            302            26883          6415           8.5616952e-12
       205   130.06299          34661   281            296            27481          6603           8.7454344e-12
       206   132.56249          35490   272            285            28131          6802           8.9480023e-12
       207   135.09041          36253   266            270            28689          7028           9.1191736e-12
       208   137.61753          36991   258            261            29240          7232           9.3107361e-12
       209   140.13932          37771   247            255            29798          7471           9.4928969e-12
       210   142.78165          38579   230            245            30390          7714           9.6705723e-12
       211   145.34687          39357   219            233            30988          7917           9.8465819e-12
       212   147.90347          40197   206            224            31583          8184           1.0031234e-11
       213   150.43713          40953   194            213            32102          8444           1.0207843e-11
       214   153.00463          41731   178            195            32600          8758           1.0369054e-11
       215   155.55715          42476   165            181            33072          9058           1.0518074e-11
       216   158.14352          43246   150            165            33590          9341           1.0636715e-11
       217   160.69523          43975   140            152            34034          9649           1.0781697e-11
       218   163.28324          44689   125            135            34484          9945           1.0910929e-11
       219   165.89016          45369   116            120            34861          10272          1.1043303e-11
       220   168.62627          46046   102            109            35236          10599          1.1146043e-11
       221   171.28518          46734   83             94             35604          10953          1.1251912e-11
       222   173.94594          47394   76             75             35925          11318          1.1344658e-11
       223   176.61475          48078   66             57             36277          11678          1.1425712e-11
       224   179.32297          48678   60             46             36521          12051          1.1516295e-11
       225   182.02309          49262   52             38             36758          12414          1.1600748e-11
       226   184.75663          49883   43             29             37046          12765          1.1665017e-11
       227   187.49565          50473   40             23             37322          13088          1.173232e-11 
       228   190.29318          51030   30             16             37562          13422          1.1762953e-11
       229   193.09218          51575   23             15             37806          13731          1.1820512e-11
       230   196.04621          52073   20             11             38027          14015          1.183605e-11 
       231   198.88727          52589   15             10             38259          14305          1.1878369e-11
       232   201.73998          53145   14             8              38538          14585          1.1916708e-11
       233   204.63667          53608   12             7              38726          14863          1.1930992e-11
       234   207.56575          54158   10             4              39005          15139          1.1971236e-11
       235   210.54465          54540   5              2              39145          15388          1.1947779e-11
       236   213.53119          54968   5              0              39308          15655          1.1966068e-11
       237   216.53949          55410   4              0              39467          15939          1.196272e-11 
       238   219.55557          55877   2              0              39642          16233          1.1959502e-11
       239   222.5874           56286   0              0              39799          16487          1.1965622e-11
       240   225.84423          56693   0              0              39880          16813          1.1946714e-11
       241   228.95912          57136   0              0              40010          17126          1.1951937e-11
       242   232.08267          57534   0              0              40048          17486          1.1964098e-11
       243   235.2811           57966   0              0              40115          17851          1.1975585e-11
       244   238.5053           58314   0              0              40082          18232          1.1925823e-11
       245   241.74106          58770   0              0              40206          18564          1.1936359e-11
       246   245.02468          59083   0              0              40182          18901          1.1913569e-11
       247   248.30994          59443   0              0              40141          19302          1.1905374e-11
       248   251.65085          59892   0              0              40233          19659          1.1911953e-11
       249   255.02066          60259   0              0              40244          20015          1.1897653e-11
       250   258.56861          60690   0              0              40348          20342          1.1912456e-11
       251   262.01254          61085   0              0              40378          20707          1.1915033e-11
       252   265.47947          61467   0              0              40446          21021          1.1905807e-11
       253   269.00429          61782   0              0              40452          21330          1.1893185e-11
       254   272.56099          62135   0              0              40455          21680          1.1879908e-11
       255   276.19662          62562   0              0              40561          22001          1.1885541e-11
       256   279.81698          62841   0              0              40524          22317          1.1872476e-11
       257   283.50127          63235   0              0              40581          22654          1.1872632e-11
       258   287.21099          63558   0              0              40586          22972          1.1856066e-11
       259   290.96963          63887   0              0              40592          23295          1.1847753e-11
       260   294.91693          64278   0              0              40651          23627          1.1848802e-11
       261   298.71337          64667   0              0              40678          23989          1.1850844e-11
       262   302.55081          64965   0              0              40625          24340          1.1844697e-11
       263   306.42897          65325   0              0              40605          24720          1.1836854e-11
       264   310.33109          65620   0              0              40549          25071          1.1816544e-11
       265   314.27415          66051   0              0              40581          25470          1.1834384e-11
       266   318.26314          66357   0              0              40499          25858          1.1839547e-11
       267   322.30224          66722   0              0              40468          26254          1.1837709e-11
       268   326.37198          67036   0              0              40390          26646          1.1836783e-11
       269   330.47671          67340   0              0              40311          27029          1.1824679e-11
       270   334.78036          67747   0              0              40293          27454          1.1836921e-11
       271   338.98823          68024   0              0              40126          27898          1.1825418e-11
       272   343.23236          68333   0              0              40016          28317          1.1823241e-11
       273   347.51618          68725   0              0              39964          28761          1.1841844e-11
       274   351.84281          69104   0              0              39913          29191          1.1854015e-11
       275   356.09266          69469   0              0              39852          29617          1.1854268e-11
       276   360.49791          69766   0              0              39710          30056          1.1844716e-11
       277   364.74203          70112   0              0              39587          30525          1.1878413e-11
       278   369.25517          70314   0              0              39314          31000          1.1854529e-11
       279   373.79689          70678   0              0              39215          31463          1.1829455e-11
       280   378.52194          71055   0              0              39116          31939          1.1852985e-11
       281   383.12355          71357   0              0              38952          32405          1.1848182e-11
       282   387.5754           71685   0              0              38834          32851          1.184877e-11 
       283   392.15267          71968   0              0              38634          33334          1.1862765e-11
       284   396.7403           72382   0              0              38548          33834          1.1886308e-11
       285   401.35435          72692   0              0              38412          34280          1.1895404e-11
       286   406.00905          73025   0              0              38289          34736          1.1900043e-11
       287   410.85122          73207   0              0              37986          35221          1.1867007e-11
       288   415.70668          73549   0              0              37860          35689          1.1883462e-11
       289   420.60883          73854   0              0              37725          36129          1.1875676e-11
       290   425.70001          74167   0              0              37586          36581          1.1878465e-11
       291   430.56685          74459   0              0              37434          37025          1.1883009e-11
       292   435.37999          74775   0              0              37297          37478          1.1905972e-11
       293   440.252            75078   0              0              37180          37898          1.19055e-11  
       294   445.18695          75451   0              0              37118          38333          1.1922079e-11
       295   450.12542          75763   0              0              37038          38725          1.1940802e-11
       296   455.063            76122   0              0              36971          39151          1.1962484e-11
       297   460.18098          76385   0              0              36831          39554          1.1967087e-11
       298   465.23698          76680   0              0              36710          39970          1.1994151e-11
       299   470.32885          76950   0              0              36596          40354          1.1992575e-11
       300   475.61719          77415   0              0              36686          40729          1.2019317e-11
       301   480.83785          77661   0              0              36559          41102          1.2007987e-11
       302   486.14403          77895   0              0              36392          41503          1.2011573e-11
       303   491.39209          78192   0              0              36333          41859          1.2033557e-11
       304   496.71983          78444   0              0              36221          42223          1.2029066e-11
       305   502.08603          78772   0              0              36191          42581          1.2037333e-11
       306   507.49975          79055   0              0              36138          42917          1.204108e-11 
       307   512.93196          79464   0              0              36162          43302          1.208143e-11 
       308   518.40816          79741   0              0              36086          43655          1.208025e-11 
       309   523.92194          80000   0              0              36032          43968          1.2079243e-11
       310   529.67496          80352   0              0              36064          44288          1.2137746e-11
       311   535.32446          80629   0              0              36042          44587          1.2119483e-11
       312   541.10111          80906   0              0              35970          44936          1.2102797e-11
       313   546.84986          81184   0              0              35930          45254          1.2098963e-11
       314   552.54462          81453   0              0              35874          45579          1.2124347e-11
       315   558.28512          81806   0              0              35906          45900          1.2159321e-11
       316   564.09296          82093   0              0              35874          46219          1.2156648e-11
       317   569.98478          82343   0              0              35796          46547          1.2154258e-11
       318   575.90546          82732   0              0              35881          46851          1.2185954e-11
       319   581.84746          82927   0              0              35751          47176          1.2179576e-11
       320   588.01325          83244   0              0              35761          47483          1.2193931e-11
Loop time of 588.014 on 16 procs for 320 steps with 83244 atoms

96.1% CPU use with 16 MPI tasks x 1 OpenMP threads

MPI task timing breakdown:
Section |  min time  |  avg time  |  max time  |%varavg| %total
---------------------------------------------------------------
Pair    | 124.75     | 162        | 210.21     | 233.4 | 27.55
Neigh   | 17.911     | 36.207     | 67.444     | 302.8 |  6.16
Comm    | 83.892     | 111.22     | 145.4      | 206.9 | 18.91
Output  | 21.542     | 21.542     | 21.543     |   0.0 |  3.66
Modify  | 134.04     | 235.23     | 308.03     | 399.1 | 40.00
Other   |            | 21.82      |            |       |  3.71

Nlocal:        5202.75 ave        8885 max        3577 min
Histogram: 8 2 1 0 0 0 1 2 1 1
Nghost:        4137.19 ave        6995 max        2756 min
Histogram: 3 7 0 1 0 1 1 2 0 1
Neighs:        39522.6 ave       47895 max       32507 min
Histogram: 3 1 2 4 1 0 0 0 2 3

Total # of neighbors = 632361
Ave neighs/atom = 7.5964754
Neighbor list builds = 4622
Dangerous builds = 386

Total wall time: 0:09:48
