LAMMPS (23 Jun 2022 - Update 4)
  using 1 OpenMP thread(s) per MPI task
package omp 0
using multi-threaded neighbor list subroutines
#-----------------------------------------------------------------------------#
#                NUFEB Simulation: Heterotrophic Biofilm Growth               #
#-----------------------------------------------------------------------------#


#-----------------------------System Settings---------------------------------#

units si                                    # using si units (m, s, kg)
atom_style      coccus                      # using nufeb coccus atom style
atom_modify     map array sort 10 0         # map array - find atoms using indices
		                            # sort every 10

boundary        pp pp ff                    # periodic boundaries in x and y
                                            # fixed boundary in z

newton          off                         # forces between local and ghost
                                            # atoms are computed in each
					     # processor without communication

processors      * * 1                       # processor grid

comm_modify     vel yes                     # communicate velocities for ghost atoms

read_data       atom_ch.in	             # read atom.in file which defines domain size
Reading data file ...
  orthogonal box = (0 0 0) to (6e-05 6e-05 6e-05)
  4 by 4 by 1 MPI processor grid
  reading atoms ...
  150 atoms
  read_data CPU = 0.016 seconds
                                            # and initial atoms


#--------------------Microbes and Functional Groups-------------------------#

group           CROSS1   type 1               # assign type 1,2 atoms to CROSS group
50 atoms in group CROSS1
group           CROSS2   type 2
50 atoms in group CROSS2
group		CHEATER  type 3
50 atoms in group CHEATER
group           dead     type 4
0 atoms in group dead

neighbor        5e-7 bin                   # setting neighbour skin distance and style

neigh_modify    check yes                  # rebuild neighbour list if any atom
                                           # had moved more than half the skin distance


#--------------------------Mesh Grid and Substrates--------------------------#

# defining grid sytle, substrate names, and grid size
grid_style      nufeb/chemostat 3 sub metab1 metab2 5e-6

# set diffusion boundary conditions and initial concentrations (liquid:kg/m3)
grid_modify     set sub      pp pp nd  1.8e-4
No /omp style for force computation currently active
grid_modify     set metab1   pp pp nd  1e-4
No /omp style for force computation currently active
grid_modify     set metab2   pp pp nd  1e-4
No /omp style for force computation currently active


#--------------------------Biological Processes-------------------------------#

# heterotrophs growth
fix growth_cross1 CROSS1 nufeb/growth/cross1 sub 3.5e-5 metab2 4e-3 metab1 growth 0.009 yield 0.6 decay 2.6e-6 metab1_exp 20

fix growth_cross2 CROSS2 nufeb/growth/cross2 sub 3.5e-5 metab1 4e-3 metab2 growth 0.009 yield 0.6 decay 2.6e-6 metab2_exp 20

fix growth_cheater CHEATER nufeb/growth/cheater sub 3.5e-5 metab1 1e-3 metab2 1e-3 growth 0.009 yield 0.6 decay 2.6e-6
# heterotrophs division, division diameter: 1.36e-6
fix div1 CROSS1 nufeb/division/coccus 1.36e-6 1064
fix div2 CROSS2 nufeb/division/coccus 1.36e-6 3950
fix div3 CHEATER nufeb/division/coccus 1.36e-6 8758

fix death1 CROSS1 nufeb/death/diameter dead 5.43e-7
fix death2 CROSS2 nufeb/death/diameter dead 5.43e-7
fix death3 CHEATER nufeb/death/diameter dead 5.43e-7

#---------------------------Physical Processes--------------------------------#

pair_style  gran/hooke/history 1e-4 NULL 1e-5 NULL 0.0 0    # pairwise interaction
pair_coeff  * *                                             # between atoms

# pairwise interaction between z-wall and atoms
fix wall all wall/gran hooke/history 1e-3 NULL 1e-4 NULL 0 0 zplane 0.0 1e-04

fix vis all viscous 1e-5                                    # viscous damping force

fix grav all gravity 9.81 vector 0.0 0.0 -1.0

fix nve all nve/limit 1e-7                                  # NVE integration with
                                                            # maximum distance limit


#---------------------------Post-Physical Processes---------------------------#

fix coeff_sub all nufeb/diffusion_coeff sub ratio 0.8       # defining diffusion coeff in the biofilm
fix coeff_metab1 all nufeb/diffusion_coeff metab1 ratio 0.8    # region is 80% of the value in liquid
fix coeff_metab2 all nufeb/diffusion_coeff metab2 ratio 0.8

#---------------------------Chemical Processes---------------------------------#

fix diff_sub all nufeb/diffusion_reaction sub 1e-9        # diffusion reaction for updating
fix diff_metab1 all nufeb/diffusion_reaction metab1 4e-9     # distribusion of substrate concentration
fix diff_metab2 all nufeb/diffusion_reaction metab2 4e-9

#--------------------------Computations and Outputs----------------------------#

variable mass equal "mass(all)"                             # total mass
variable ncross1 equal "count(CROSS1)"                      # total # of CROSS1
variable ncross2 equal "count(CROSS2)"                      # total # of CROSS2
variable ncheater equal "count(CHEATER)"
variable ndead equal "count(dead)"

shell mkdir vtk_NEPS_ch                                            # dump vtk files to /vtk folder
dump du1 all vtk 10 vtk_NEPS_ch/dump*.vtu id type diameter         # require build NUFEB with vtk option
dump du2 all grid/vtk 10 vtk_NEPS_ch/dump_%_*.vti con rea den gro

#dump du3 all movie 10 movie.avi type diameter view 80 60    # dump video
#dump_modify du3 acolor 1 blue acolor 2 lightgrey framerate 10


                                                            # dump hdf5 files to /hdf5 folder
#shell mkdir hdf5                                           # require build NUFEB with hdf5 option
#dump du3 all nufeb/hdf5 10 dump.h5 id type x y z vx vy vz fx fy fz radius conc reac

thermo_style custom step cpu atoms v_ncross1 v_ncross2 v_ncheater v_ndead v_mass     # screen and log outputs
thermo 1
thermo_modify   lost ignore

#-----------------------------------Run----------------------------------------#

# issue run command, define timesteps for physical (pairdt) and chemical (diffdt) processes
run_style nufeb diffdt 1e-4 difftol 1e-6 pairdt 1e-2 pairtol 1 pairmax 1000 diffmax 5000

timestep 12000                                               # define biological timesteps (1000s)

run 320                                                    # growing biofilm for 900x1000s
Generated 0 of 6 mixed pair_coeff terms from geometric mixing rule
Last active /omp style is pair_style gran/hooke/history/omp
Neighbor list info ...
  update every 1 steps, delay 10 steps, check yes
  max neighbors/atom: 2000, page size: 100000
  master list distance cutoff = 2.49e-06
  ghost atom cutoff = 2.49e-06
  binsize = 1.245e-06, bins = 49 49 49
  1 neighbor lists, perpetual/occasional/extra = 1 0 0
  (1) pair gran/hooke/history/omp, perpetual
      attributes: half, newton off, size, history, omp
      pair build: half/size/bin/newtoff/omp
      stencil: full/bin/3d
      bin: standard
Per MPI rank memory allocation (min/avg/max) = 11.02 | 11.02 | 11.02 Mbytes
   Step          CPU          Atoms      v_ncross1      v_ncross2      v_ncheater      v_ndead         v_mass    
         0   0                    150   50             50             50             0              1.3295396e-13
         1   0.38420581           273   96             91             86             0              1.9616795e-13
         2   0.7658475            437   151            150            136            0              2.238719e-13 
         3   1.0720492            541   170            200            171            0              2.4522277e-13
         4   1.3655764            591   182            218            191            0              2.6407635e-13
         5   1.5708301            627   191            230            206            0              2.8166818e-13
         6   1.7179652            659   201            240            218            0              2.9842676e-13
         7   1.87629              697   213            254            230            0              3.1426491e-13
         8   2.0148491            734   223            265            246            0              3.2933556e-13
         9   2.1307152            772   233            282            257            0              3.4336559e-13
        10   2.2441485            808   243            291            274            0              3.5680128e-13
        11   2.3375043            845   250            304            291            0              3.696443e-13 
        12   2.4528843            871   257            316            298            0              3.8180148e-13
        13   2.5270449            893   260            323            310            0              3.934619e-13 
        14   2.6058257            929   267            330            332            0              4.0453663e-13
        15   2.6890091            953   271            335            347            0              4.1508135e-13
        16   2.7760791            970   274            340            356            0              4.2516269e-13
        17   2.8720675           1002   282            349            371            0              4.348122e-13 
        18   2.9477083           1032   287            353            392            0              4.4404145e-13
        19   3.0157524           1062   293            361            408            0              4.5287542e-13
        20   3.1193714           1082   296            366            420            0              4.6132263e-13
        21   3.1921016           1107   298            372            437            0              4.694111e-13 
        22   3.2660765           1121   301            374            446            0              4.7723482e-13
        23   3.3592047           1137   303            379            455            0              4.8477792e-13
        24   3.4344503           1161   309            385            467            0              4.9197186e-13
        25   3.4873158           1179   313            387            479            0              4.9854322e-13
        26   3.5467744           1194   318            388            488            0              5.0478431e-13
        27   3.6063826           1225   324            396            505            0              5.1072831e-13
        28   3.6654674           1241   327            398            516            0              5.163595e-13 
        29   3.7287364           1257   329            401            527            0              5.2170968e-13
        30   3.7959518           1276   331            403            542            0              5.2694986e-13
        31   3.8501878           1290   334            405            551            0              5.3186944e-13
        32   3.9028566           1313   336            406            571            0              5.3652075e-13
        33   3.9537101           1324   338            410            576            0              5.4098558e-13
        34   4.003142            1340   344            413            583            0              5.4531001e-13
        35   4.0542754           1359   346            417            596            0              5.4935312e-13
        36   4.1012375           1367   347            420            600            0              5.5331412e-13
        37   4.1456618           1381   352            420            609            0              5.5713695e-13
        38   4.1867281           1398   354            422            622            0              5.6072433e-13
        39   4.2267633           1413   357            423            633            0              5.6413047e-13
        40   4.2806354           1422   358            425            639            0              5.6731333e-13
        41   4.3255489           1432   358            426            648            0              5.7036841e-13
        42   4.3623473           1445   360            429            656            0              5.7332598e-13
        43   4.4000137           1455   361            433            661            0              5.761645e-13 
        44   4.4712484           1461   363            434            664            0              5.7885516e-13
        45   4.5273644           1470   364            435            671            0              5.8135176e-13
        46   4.5713324           1482   364            437            681            0              5.8364372e-13
        47   4.6120074           1494   366            437            691            0              5.8579162e-13
        48   4.6490531           1506   367            437            702            0              5.8781719e-13
        49   4.6906448           1511   367            437            707            0              5.8973113e-13
        50   4.7376337           1520   369            438            713            0              5.9157958e-13
        51   4.7697824           1529   371            438            720            0              5.9338243e-13
        52   4.8034616           1540   373            438            729            0              5.950918e-13 
        53   4.8467414           1544   373            438            733            0              5.9670563e-13
        54   4.8880285           1552   374            439            739            0              5.9826394e-13
        55   4.9260947           1553   374            439            740            0              5.997376e-13 
        56   4.9653652           1561   376            440            744            1              6.0115641e-13
        57   5.005376            1569   377            441            747            4              6.0255642e-13
        58   5.0584276           1580   378            441            757            4              6.0390965e-13
        59   5.1023501           1587   379            441            763            4              6.0526002e-13
        60   5.1491255           1597   380            443            768            6              6.066088e-13 
        61   5.200863            1607   382            444            769            12             6.0787611e-13
        62   5.2443337           1611   383            444            768            16             6.091583e-13 
        63   5.2862736           1618   384            444            768            22             6.1043231e-13
        64   5.3134373           1622   385            444            765            28             6.1168513e-13
        65   5.3530855           1626   385            444            768            29             6.1286835e-13
        66   5.3829554           1631   385            445            761            40             6.1404749e-13
        67   5.42279             1636   387            445            759            45             6.1520382e-13
        68   5.4622582           1642   387            445            755            55             6.1635135e-13
        69   5.5087543           1648   388            445            753            62             6.174981e-13 
        70   5.5696248           1658   388            445            754            71             6.1865933e-13
        71   5.6035278           1665   389            445            753            78             6.1979009e-13
        72   5.6406895           1668   389            445            744            90             6.209031e-13 
        73   5.672269            1670   389            445            740            96             6.220141e-13 
        74   5.7033052           1679   389            445            742            103            6.2310736e-13
        75   5.7327695           1687   389            445            741            112            6.2417715e-13
        76   5.7640097           1692   391            445            741            115            6.2522428e-13
        77   5.7920284           1699   391            445            740            123            6.262481e-13 
        78   5.8198892           1700   391            446            733            130            6.2723682e-13
        79   5.8465396           1706   392            447            732            135            6.2821042e-13
        80   5.8868583           1711   392            447            728            144            6.2915501e-13
        81   5.9148165           1715   392            447            723            153            6.300877e-13 
        82   5.9569563           1722   392            447            725            158            6.3100861e-13
        83   5.9819129           1730   392            447            728            163            6.3198836e-13
        84   6.0382457           1735   392            447            729            167            6.3287568e-13
        85   6.0976079           1737   393            447            724            173            6.3390982e-13
        86   6.1332994           1745   394            447            728            176            6.3498235e-13
        87   6.1709209           1748   394            447            728            179            6.3596698e-13
        88   6.2141954           1752   394            447            727            184            6.3687938e-13
        89   6.2690004           1756   394            447            726            189            6.3784219e-13
        90   6.3486919           1761   395            447            728            191            6.3886967e-13
        91   6.4032333           1766   395            448            731            192            6.3998794e-13
        92   6.4776764           1772   395            448            733            196            6.4113569e-13
        93   6.5461117           1779   395            448            738            198            6.4243677e-13
        94   6.6008373           1782   395            448            740            199            6.438359e-13 
        95   6.6846155           1789   395            448            744            202            6.4524252e-13
        96   6.7712505           1799   396            448            752            203            6.4680907e-13
        97   6.8625986           1806   396            448            757            205            6.4851652e-13
        98   6.9510523           1815   396            448            764            207            6.5056916e-13
        99   7.0637858           1822   396            448            771            207            6.5273713e-13
       100   7.1833926           1833   397            448            776            212            6.5516415e-13
       101   7.2708933           1846   398            448            785            215            6.5776223e-13
       102   7.4081403           1859   398            449            795            217            6.6054727e-13
       103   7.5517781           1871   398            449            807            217            6.6374675e-13
       104   7.6743731           1887   398            449            820            220            6.6727225e-13
       105   7.8336636           1901   398            449            833            221            6.7110911e-13
       106   7.9714001           1915   398            449            841            227            6.7530771e-13
       107   8.1002057           1926   398            449            850            229            6.7977803e-13
       108   8.224834            1946   398            449            865            234            6.8443733e-13
       109   8.3356368           1968   398            449            884            237            6.8926067e-13
       110   8.4756023           1988   398            449            903            238            6.9409676e-13
       111   8.6314328           2012   398            449            926            239            6.9911216e-13
       112   8.7503008           2027   398            449            939            241            7.0446603e-13
       113   8.8615505           2053   398            449            961            245            7.098009e-13 
       114   8.9654433           2066   398            449            970            249            7.1520228e-13
       115   9.0843392           2089   398            449            989            253            7.2060376e-13
       116   9.1832009           2111   398            449            1009           255            7.2608378e-13
       117   9.2813222           2134   398            449            1029           258            7.3152556e-13
       118   9.3654124           2160   399            449            1054           258            7.3692473e-13
       119   9.4685436           2178   399            449            1067           263            7.421897e-13 
       120   9.5926909           2204   399            449            1091           265            7.4746749e-13
       121   9.6773801           2219   399            449            1103           268            7.5279908e-13
       122   9.7612108           2239   399            449            1122           269            7.5798849e-13
       123   9.8552071           2268   399            449            1150           270            7.6302151e-13
       124   9.9676396           2289   399            449            1169           272            7.6797029e-13
       125   10.08683            2304   399            449            1183           273            7.730854e-13 
       126   10.178073           2323   399            449            1202           273            7.7823544e-13
       127   10.305541           2344   399            449            1222           274            7.8320227e-13
       128   10.460473           2371   399            449            1249           274            7.8856431e-13
       129   10.642868           2401   399            449            1276           277            7.9423597e-13
       130   10.838696           2417   399            449            1291           278            8.0034375e-13
       131   11.039507           2436   399            449            1310           278            8.0667328e-13
       132   11.279322           2458   399            449            1330           280            8.1358643e-13
       133   11.539639           2489   399            449            1361           280            8.2125274e-13
       134   11.801733           2520   399            449            1390           282            8.2965158e-13
       135   12.060736           2554   399            449            1423           283            8.3879429e-13
       136   12.309569           2593   399            449            1459           286            8.483264e-13 
       137   12.548692           2627   399            449            1493           286            8.5839396e-13
       138   12.770345           2664   399            449            1529           287            8.6873011e-13
       139   12.973456           2709   399            449            1574           287            8.7918539e-13
       140   13.170222           2746   399            449            1608           290            8.8960492e-13
       141   13.340581           2793   399            449            1655           290            8.9976664e-13
       142   13.498669           2832   399            449            1694           290            9.0973254e-13
       143   13.697951           2886   399            449            1747           291            9.1951217e-13
       144   13.896185           2927   399            449            1786           293            9.2941546e-13
       145   14.090786           2967   399            449            1824           295            9.3920613e-13
       146   14.360425           3013   399            449            1861           304            9.4913035e-13
       147   14.684003           3053   399            449            1896           309            9.5953554e-13
       148   14.951631           3090   399            449            1929           313            9.7068626e-13
       149   15.293763           3148   399            449            1975           325            9.8210218e-13
       150   15.664211           3196   399            449            2017           331            9.9459005e-13
       151   16.019838           3246   399            449            2059           339            1.00781e-12  
       152   16.336383           3296   399            449            2098           350            1.0218763e-12
       153   16.657319           3338   399            449            2133           357            1.036319e-12 
       154   16.981363           3407   399            449            2198           361            1.0510126e-12
       155   17.314695           3457   399            449            2238           371            1.0660174e-12
       156   17.584256           3507   399            449            2278           381            1.0809782e-12
       157   17.873693           3573   399            449            2333           392            1.0958015e-12
       158   18.157834           3636   399            449            2387           401            1.1107738e-12
       159   18.471931           3697   399            449            2444           405            1.1255855e-12
       160   18.799526           3760   399            449            2494           418            1.1407897e-12
       161   19.144106           3829   399            449            2550           431            1.1560138e-12
       162   19.505219           3891   399            449            2601           442            1.1718645e-12
       163   19.880602           3953   399            449            2656           449            1.1882108e-12
       164   20.261436           4020   399            449            2719           453            1.2050404e-12
       165   20.657695           4098   399            449            2789           461            1.2226912e-12
       166   21.043418           4163   399            449            2846           469            1.2412148e-12
       167   21.445219           4240   399            449            2909           483            1.2600563e-12
       168   21.844788           4324   399            449            2984           492            1.279607e-12 
       169   22.218083           4416   399            449            3067           501            1.3000223e-12
       170   22.637811           4502   399            449            3144           510            1.3204762e-12
       171   23.032432           4580   399            448            3213           520            1.3414663e-12
       172   23.427543           4690   399            446            3311           534            1.3628205e-12
       173   23.873472           4781   399            446            3397           539            1.38473e-12  
       174   24.271481           4877   399            445            3491           542            1.4067627e-12
       175   24.677202           4976   399            443            3586           548            1.4292826e-12
       176   25.078658           5079   399            443            3681           556            1.4522569e-12
       177   25.490804           5189   399            442            3784           564            1.4756551e-12
       178   25.888983           5296   399            442            3886           569            1.4995518e-12
       179   26.28245            5409   399            442            3995           573            1.5235605e-12
       180   26.699279           5518   399            442            4100           577            1.5478148e-12
       181   27.082657           5625   399            442            4204           580            1.5722893e-12
       182   27.450993           5749   399            442            4327           581            1.5965943e-12
       183   27.815093           5844   399            442            4419           584            1.6203155e-12
       184   28.212264           5972   399            439            4543           591            1.6436789e-12
       185   28.626518           6080   399            438            4643           600            1.6671207e-12
       186   29.078992           6200   399            436            4757           608            1.6905866e-12
       187   29.502729           6313   399            436            4860           618            1.7148411e-12
       188   29.915771           6432   399            435            4976           622            1.7394393e-12
       189   30.339812           6555   399            434            5097           625            1.7642631e-12
       190   30.783645           6671   399            433            5203           636            1.7898869e-12
       191   31.201788           6798   399            430            5320           649            1.8162629e-12
       192   31.620497           6924   399            429            5441           655            1.8431466e-12
       193   32.03244            7055   399            428            5562           666            1.8702789e-12
       194   32.436656           7164   399            428            5663           674            1.8972252e-12
       195   32.852757           7288   399            428            5773           688            1.9239021e-12
       196   33.243747           7423   399            428            5890           706            1.9501878e-12
       197   33.653829           7546   399            428            5996           723            1.9760666e-12
       198   34.10604            7674   399            428            6110           737            2.0017648e-12
       199   34.496332           7803   399            427            6221           756            2.0271763e-12
       200   34.950783           7930   399            426            6332           773            2.0520961e-12
       201   35.378229           8069   399            426            6457           787            2.0777739e-12
       202   35.812778           8184   399            426            6546           813            2.1037041e-12
       203   36.259153           8332   399            426            6674           833            2.1307061e-12
       204   36.69408            8487   399            426            6808           854            2.1586517e-12
       205   37.117687           8624   399            426            6928           871            2.1876376e-12
       206   37.554875           8764   397            426            7049           892            2.2170202e-12
       207   37.981235           8899   397            426            7156           920            2.2470878e-12
       208   38.400991           9046   396            424            7266           960            2.2772796e-12
       209   38.82939            9196   396            423            7388           989            2.3075112e-12
       210   39.324405           9331   395            423            7483           1030           2.3373067e-12
       211   39.763901           9473   395            423            7601           1054           2.366813e-12 
       212   40.210258           9627   395            422            7722           1088           2.3962712e-12
       213   40.653697           9779   395            422            7830           1132           2.4258854e-12
       214   41.123828           9928   394            422            7949           1163           2.4554968e-12
       215   41.580254          10086   393            422            8052           1219           2.4860117e-12
       216   42.046946          10250   392            421            8153           1284           2.5171604e-12
       217   42.524902          10415   391            421            8270           1333           2.5496248e-12
       218   43.010695          10574   391            421            8356           1406           2.5830044e-12
       219   43.477648          10729   390            420            8443           1476           2.6171918e-12
       220   43.979522          10893   389            419            8544           1541           2.6521323e-12
       221   44.490868          11041   389            418            8619           1615           2.6875152e-12
       222   44.989094          11227   388            418            8732           1689           2.7232536e-12
       223   45.474261          11407   388            415            8829           1775           2.7595453e-12
       224   45.944698          11581   388            414            8906           1873           2.7965803e-12
       225   46.421797          11767   387            413            8995           1972           2.8337609e-12
       226   46.920484          11953   386            411            9093           2063           2.8728483e-12
       227   47.431672          12152   385            411            9210           2146           2.9141614e-12
       228   47.94094           12349   385            410            9304           2250           2.9577589e-12
       229   48.450808          12548   385            409            9418           2336           3.0026419e-12
       230   49.014441          12769   385            409            9556           2419           3.0491645e-12
       231   49.549449          12993   385            408            9685           2515           3.096469e-12 
       232   50.112723          13210   385            407            9815           2603           3.1450204e-12
       233   50.662927          13424   385            405            9953           2681           3.1931135e-12
       234   51.215231          13687   385            404            10139          2759           3.2417608e-12
       235   51.804493          13920   384            403            10296          2837           3.2922226e-12
       236   52.396842          14161   383            403            10455          2920           3.3454473e-12
       237   53.040997          14390   383            403            10603          3001           3.4021622e-12
       238   53.695534          14673   382            401            10819          3071           3.4628002e-12
       239   54.412819          14946   382            401            11014          3149           3.5268941e-12
       240   55.117             15221   382            400            11208          3231           3.5932323e-12
       241   55.78674           15501   382            399            11410          3310           3.6624879e-12
       242   56.511798          15802   381            397            11640          3384           3.7336533e-12
       243   57.259989          16101   381            394            11876          3450           3.8071611e-12
       244   58.043825          16412   381            393            12112          3526           3.8842076e-12
       245   58.845556          16748   379            390            12369          3610           3.9691927e-12
       246   59.788913          17108   379            385            12657          3687           4.0618046e-12
       247   60.793114          17517   377            382            12973          3785           4.1631543e-12
       248   61.923629          17925   375            380            13291          3879           4.2728105e-12
       249   63.171419          18345   374            380            13642          3949           4.3910816e-12
       250   64.58792           18804   373            377            14023          4031           4.5165679e-12
       251   66.019581          19242   373            371            14386          4112           4.6425347e-12
       252   67.757094          19698   369            370            14766          4193           4.7768445e-12
       253   69.608406          20190   368            366            15164          4292           4.9136616e-12
       254   71.681613          20710   367            365            15623          4355           5.0475023e-12
       255   73.839432          21213   367            361            16044          4441           5.1894947e-12
       256   76.088761          21726   366            359            16485          4516           5.3304818e-12
       257   78.377425          22287   360            355            16936          4636           5.477876e-12 
       258   80.70293           22863   358            353            17415          4737           5.6236973e-12
       259   83.049479          23411   353            349            17870          4839           5.7848978e-12
       260   85.546363          23952   348            344            18333          4927           5.9327539e-12
       261   87.978298          24529   342            339            18806          5042           6.0911541e-12
       262   90.451425          25163   339            333            19357          5134           6.2534773e-12
       263   92.9418            25744   334            328            19848          5234           6.4170638e-12
       264   95.460637          26402   329            325            20424          5324           6.5882204e-12
       265   97.97831           27045   321            322            20949          5453           6.7655654e-12
       266   100.50962          27774   316            315            21583          5560           6.9503846e-12
       267   103.02563          28443   309            306            22161          5667           7.1334078e-12
       268   105.58159          29173   300            300            22796          5777           7.3257467e-12
       269   108.1143           29860   293            290            23388          5889           7.5217402e-12
       270   110.80064          30627   282            284            24070          5991           7.7104402e-12
       271   113.35181          31448   271            272            24806          6099           7.9164888e-12
       272   115.9755           32261   260            262            25506          6233           8.1423557e-12
       273   118.56978          33108   251            242            26220          6395           8.3642517e-12
       274   121.14093          33931   239            225            26884          6583           8.5966524e-12
       275   123.68816          34831   233            215            27640          6743           8.851486e-12 
       276   126.23674          35790   213            198            28434          6945           9.0843634e-12
       277   128.80338          36647   198            187            29118          7144           9.2980543e-12
       278   131.37049          37516   186            171            29778          7381           9.5320823e-12
       279   133.94963          38504   171            157            30534          7642           9.7724971e-12
       280   136.61532          39330   157            146            31166          7861           9.983216e-12 
       281   139.21248          40273   142            128            31880          8123           1.0201278e-11
       282   141.82745          41177   127            112            32514          8424           1.0411548e-11
       283   144.4626           42074   108            97             33142          8727           1.0619899e-11
       284   147.07871          42909   91             80             33710          9028           1.0794404e-11
       285   149.70097          43783   72             69             34299          9343           1.0979422e-11
       286   152.36826          44627   62             56             34872          9637           1.1135886e-11
       287   155.02431          45393   52             44             35328          9969           1.128959e-11 
       288   157.72078          46161   40             37             35822          10262          1.143664e-11 
       289   160.45384          46878   28             26             36228          10596          1.1532804e-11
       290   163.27857          47547   22             15             36544          10966          1.1653179e-11
       291   165.98262          48247   18             10             36913          11306          1.1741693e-11
       292   168.7281           48899   14             7              37236          11642          1.1817572e-11
       293   171.5479           49493   7              5              37476          12005          1.1876413e-11
       294   174.35883          50121   2              2              37764          12353          1.1951627e-11
       295   177.17958          50659   1              2              37956          12700          1.1989624e-11
       296   180.04308          51234   1              1              38173          13059          1.2023651e-11
       297   182.90608          51699   1              1              38307          13390          1.2013263e-11
       298   185.80302          52210   0              0              38482          13728          1.2059245e-11
       299   188.72293          52695   0              0              38680          14015          1.2066702e-11
       300   191.78853          53146   0              0              38801          14345          1.2063964e-11
       301   194.73689          53657   0              0              38999          14658          1.2075496e-11
       302   197.74252          54172   0              0              39216          14956          1.210216e-11 
       303   200.76525          54588   0              0              39337          15251          1.2074678e-11
       304   203.82872          55005   0              0              39484          15521          1.2069718e-11
       305   206.97852          55402   0              0              39575          15827          1.2056717e-11
       306   210.06201          55835   0              0              39729          16106          1.2060099e-11
       307   213.2075           56262   0              0              39833          16429          1.2053663e-11
       308   216.33877          56761   0              0              39983          16778          1.2029066e-11
       309   219.53104          57124   0              0              39973          17151          1.2039251e-11
       310   222.85483          57568   0              0              40090          17478          1.2038077e-11
       311   226.09941          57891   0              0              40071          17820          1.2020572e-11
       312   229.36782          58362   0              0              40207          18155          1.2008449e-11
       313   232.69664          58757   0              0              40270          18487          1.1997799e-11
       314   236.06278          59194   0              0              40371          18823          1.2003417e-11
       315   239.44731          59489   0              0              40342          19147          1.1971405e-11
       316   242.86464          59937   0              0              40425          19512          1.2001414e-11
       317   246.31047          60300   0              0              40444          19856          1.1966079e-11
       318   249.76644          60625   0              0              40406          20219          1.1925768e-11
       319   253.26763          61052   0              0              40490          20562          1.1914998e-11
       320   256.98465          61359   0              0              40487          20872          1.1901672e-11
Loop time of 256.985 on 16 procs for 320 steps with 61359 atoms

98.1% CPU use with 16 MPI tasks x 1 OpenMP threads

MPI task timing breakdown:
Section |  min time  |  avg time  |  max time  |%varavg| %total
---------------------------------------------------------------
Pair    | 20.269     | 41.197     | 80.377     | 271.4 | 16.03
Neigh   | 3.336      | 10.328     | 30.583     | 267.1 |  4.02
Comm    | 39.787     | 48.479     | 56.716     |  86.6 | 18.86
Output  | 1.5383     | 1.5401     | 1.5453     |   0.2 |  0.60
Modify  | 80.758     | 141.6      | 171.67     | 226.3 | 55.10
Other   |            | 13.84      |            |       |  5.38

Nlocal:        3834.94 ave        8042 max        2266 min
Histogram: 8 2 2 1 0 0 0 0 1 2
Nghost:        2922.88 ave        4716 max        1881 min
Histogram: 4 3 1 1 2 1 2 0 0 2
Neighs:        21063.2 ave       30204 max       16245 min
Histogram: 3 3 3 2 0 3 0 0 0 2

Total # of neighbors = 337012
Ave neighs/atom = 5.4924624
Neighbor list builds = 2710
Dangerous builds = 237

Total wall time: 0:04:34
