LAMMPS (23 Jun 2022 - Update 4)
  using 1 OpenMP thread(s) per MPI task
package omp 0
using multi-threaded neighbor list subroutines
#-----------------------------------------------------------------------------#
#                NUFEB Simulation: Heterotrophic Biofilm Growth               #
#-----------------------------------------------------------------------------#


#-----------------------------System Settings---------------------------------#

units si                                    # using si units (m, s, kg)
atom_style      coccus                      # using nufeb coccus atom style
atom_modify     map array sort 10 0         # map array - find atoms using indices
		                            # sort every 10

boundary        pp pp ff                    # periodic boundaries in x and y
                                            # fixed boundary in z

newton          off                         # forces between local and ghost
                                            # atoms are computed in each
					     # processor without communication

processors      * * 1                       # processor grid

comm_modify     vel yes                     # communicate velocities for ghost atoms

read_data       atom_ch.in	             # read atom.in file which defines domain size
Reading data file ...
  orthogonal box = (0 0 0) to (6e-05 6e-05 6e-05)
  4 by 4 by 1 MPI processor grid
  reading atoms ...
  150 atoms
  read_data CPU = 0.020 seconds
                                            # and initial atoms


#--------------------Microbes and Functional Groups-------------------------#

group           CROSS1   type 1               # assign type 1,2 atoms to CROSS group
50 atoms in group CROSS1
group           CROSS2   type 2
50 atoms in group CROSS2
group		CHEATER  type 3
50 atoms in group CHEATER
group           dead     type 4
0 atoms in group dead
group		EPS	 type 5
0 atoms in group EPS

neighbor        5e-7 bin                   # setting neighbour skin distance and style

neigh_modify    check yes                  # rebuild neighbour list if any atom
                                           # had moved more than half the skin distance


#--------------------------Mesh Grid and Substrates--------------------------#

# defining grid sytle, substrate names, and grid size
grid_style      nufeb/chemostat 3 sub metab1 metab2 5e-6

# set diffusion boundary conditions and initial concentrations (liquid:kg/m3)
grid_modify     set sub      pp pp nd  1.8e-4
No /omp style for force computation currently active
grid_modify     set metab1   pp pp nd  1e-4
No /omp style for force computation currently active
grid_modify     set metab2   pp pp nd  1e-4
No /omp style for force computation currently active


#--------------------------Biological Processes-------------------------------#

# heterotrophs growth
fix growth_cross1 CROSS1 nufeb/growth/cross1 sub 3.5e-5 metab2 4e-3 metab1 growth 0.009 yield 0.6 decay 2.6e-6 metab1_exp 20 epsyield 0.12 epsdens 30

fix growth_cross2 CROSS2 nufeb/growth/cross2 sub 3.5e-5 metab1 4e-3 metab2 growth 0.009 yield 0.6 decay 2.6e-6 metab2_exp 20 epsyield 0.12 epsdens 30

fix growth_cheater CHEATER nufeb/growth/cheater sub 3.5e-5 metab1 1e-3 metab2 1e-3 growth 0.009 yield 0.6 decay 2.6e-6

# heterotrophs division, division diameter: 1.36e-6
fix div1 CROSS1 nufeb/division/coccus 1.36e-6 272
fix div2 CROSS2 nufeb/division/coccus 1.36e-6 782
fix div3 CHEATER nufeb/division/coccus 1.36e-6 1630

fix death1 CROSS1 nufeb/death/diameter dead 5.43e-7
fix death2 CROSS2 nufeb/death/diameter dead 5.43e-7
fix death3 CHEATER nufeb/death/diameter dead 5.43e-7

# EPS secretion from heterotrophs
fix eps1 CROSS1 nufeb/eps_secretion 5 EPS 1.1 30 2816
fix eps2 CROSS2 nufeb/eps_secretion 5 EPS 1.1 30 4340

#---------------------------Physical Processes--------------------------------#

pair_style  gran/hooke/history 1e-4 NULL 1e-5 NULL 0.0 0    # pairwise interaction
pair_coeff  * *                                             # between atoms

# pairwise interaction between z-wall and atoms
fix wall all wall/gran hooke/history 1e-3 NULL 1e-4 NULL 0 0 zplane 0.0 1e-04

fix vis all viscous 1e-5                                    # viscous damping force

fix grav all gravity 9.81 vector 0.0 0.0 -1.0

fix nve all nve/limit 1e-7                                  # NVE integration with
                                                            # maximum distance limit


#---------------------------Post-Physical Processes---------------------------#

fix coeff_sub all nufeb/diffusion_coeff sub ratio 0.8       # defining diffusion coeff in the biofilm
fix coeff_metab1 all nufeb/diffusion_coeff metab1 ratio 0.8    # region is 80% of the value in liquid
fix coeff_metab2 all nufeb/diffusion_coeff metab2 ratio 0.8

#---------------------------Chemical Processes---------------------------------#

fix diff_sub all nufeb/diffusion_reaction sub 1e-9        # diffusion reaction for updating
fix diff_metab1 all nufeb/diffusion_reaction metab1 4e-9     # distribusion of substrate concentration
fix diff_metab2 all nufeb/diffusion_reaction metab2 4e-9

#--------------------------Computations and Outputs----------------------------#

variable mass equal "mass(all)"                             # total mass
variable ncross1 equal "count(CROSS1)"                      # total # of CROSS1
variable ncross2 equal "count(CROSS2)"                      # total # of CROSS2
variable ncheater equal "count(CHEATER)"
variable ndead equal "count(dead)"
variable neps equal "count(EPS)"

shell mkdir vtk_EPS_ch                                            # dump vtk files to /vtk folder
dump du1 all vtk 10 vtk_EPS_ch/dump*.vtu id type diameter         # require build NUFEB with vtk option
dump du2 all grid/vtk 10 vtk_EPS_ch/dump_%_*.vti con rea den gro

#dump du3 all movie 10 movie.avi type diameter view 80 60    # dump video
#dump_modify du3 acolor 1 blue acolor 2 lightgrey framerate 10


                                                            # dump hdf5 files to /hdf5 folder
#shell mkdir hdf5                                           # require build NUFEB with hdf5 option
#dump du3 all nufeb/hdf5 10 dump.h5 id type x y z vx vy vz fx fy fz radius conc reac

thermo_style custom step cpu atoms v_ncross1 v_ncross2 v_ncheater v_ndead v_neps v_mass     # screen and log outputs
thermo 1
thermo_modify   lost ignore

#-----------------------------------Run----------------------------------------#

# issue run command, define timesteps for physical (pairdt) and chemical (diffdt) processes
run_style nufeb diffdt 1e-4 difftol 1e-6 pairdt 1e-2 pairtol 1 pairmax 1000 diffmax 5000

timestep 12000                                               # define biological timesteps (1000s)

run 320                                                    # growing biofilm for 900x1000s
Generated 0 of 6 mixed pair_coeff terms from geometric mixing rule
Last active /omp style is pair_style gran/hooke/history/omp
Neighbor list info ...
  update every 1 steps, delay 10 steps, check yes
  max neighbors/atom: 2000, page size: 100000
  master list distance cutoff = 2.49e-06
  ghost atom cutoff = 2.49e-06
  binsize = 1.245e-06, bins = 49 49 49
  1 neighbor lists, perpetual/occasional/extra = 1 0 0
  (1) pair gran/hooke/history/omp, perpetual
      attributes: half, newton off, size, history, omp
      pair build: half/size/bin/newtoff/omp
      stencil: full/bin/3d
      bin: standard
Per MPI rank memory allocation (min/avg/max) = 11.02 | 11.02 | 11.02 Mbytes
   Step          CPU          Atoms      v_ncross1      v_ncross2      v_ncheater      v_ndead         v_neps         v_mass    
         0   0                    150   50             50             50             0              0              1.3295396e-13
         1   0.38253464           432   90             85             86             0              171            1.7276308e-13
         2   0.76394156           792   117            126            137            0              412            1.9568357e-13
         3   1.0962728           1139   131            146            184            0              678            2.1530532e-13
         4   1.4105592           1438   137            153            200            0              948            2.335935e-13 
         5   1.6274169           1768   144            159            226            0              1239           2.5159199e-13
         6   1.799182            2097   149            169            242            0              1537           2.6940906e-13
         7   1.9786865           2430   155            177            256            0              1842           2.869733e-13 
         8   2.1205835           2782   162            186            272            0              2162           3.042898e-13 
         9   2.2589354           3151   169            192            305            0              2485           3.2130929e-13
        10   2.4508407           3531   174            204            327            0              2826           3.3812401e-13
        11   2.5951092           3905   176            213            349            0              3167           3.5434863e-13
        12   2.7221698           4289   186            219            368            0              3516           3.7017517e-13
        13   2.844625            4686   191            226            391            0              3878           3.8567801e-13
        14   2.9604738           5073   200            233            409            0              4231           4.0077491e-13
        15   3.0840061           5461   204            236            423            0              4598           4.1545208e-13
        16   3.1874573           5848   205            241            443            0              4959           4.2951323e-13
        17   3.2660195           6249   207            246            464            0              5332           4.4317315e-13
        18   3.375283            6634   209            250            484            0              5691           4.5650067e-13
        19   3.4994981           7008   215            251            500            0              6042           4.6920749e-13
        20   3.6233671           7409   221            258            517            0              6413           4.8156494e-13
        21   3.717617            7812   226            261            534            0              6791           4.9322494e-13
        22   3.8023873           8192   233            264            546            0              7149           5.0422967e-13
        23   3.8853112           8589   236            266            561            0              7526           5.1499354e-13
        24   3.9586844           8989   240            268            579            0              7902           5.2539692e-13
        25   4.0625931           9383   245            275            593            0              8270           5.3554076e-13
        26   4.1818968           9786   253            278            606            0              8649           5.4522945e-13
        27   4.2724569          10191   257            280            618            0              9036           5.5458279e-13
        28   4.3735448          10584   259            285            632            0              9408           5.6355664e-13
        29   4.5050803          10998   261            290            652            0              9795           5.729248e-13 
        30   4.7977769          11393   264            293            662            0              10174          5.8186905e-13
        31   4.9426698          11783   267            297            673            0              10546          5.9082145e-13
        32   5.0672283          12192   271            297            684            0              10940          5.9961487e-13
        33   5.2008303          12599   274            299            699            0              11327          6.0797826e-13
        34   5.3646474          12989   278            300            712            0              11699          6.1625581e-13
        35   5.5833423          13412   281            303            729            0              12099          6.2479513e-13
        36   5.8250713          13783   283            305            746            0              12449          6.3347026e-13
        37   6.0462621          14207   285            310            762            0              12850          6.4285598e-13
        38   6.3280886          14599   287            312            776            0              13224          6.5198077e-13
        39   6.6772512          15008   294            314            793            0              13607          6.6128922e-13
        40   50.610072          15418   295            314            817            0              13992          6.7070303e-13
        41   51.053751          15801   297            315            835            0              14354          6.8009065e-13
        42   51.59514           16203   299            316            855            0              14733          6.8939188e-13
        43   52.165018          16606   303            318            876            0              15109          6.9892334e-13
        44   52.83896           17023   303            320            899            0              15501          7.0818471e-13
        45   53.778003          17413   304            323            919            0              15867          7.1726451e-13
        46   54.720981          17836   307            326            951            0              16252          7.2644898e-13
        47   55.689916          18239   308            326            974            0              16631          7.3525188e-13
        48   56.680137          18639   311            327            996            0              17005          7.4409447e-13
        49   57.676508          19038   312            329            1009           0              17388          7.5255544e-13
        50   58.740218          19423   314            329            1028           0              17752          7.6048875e-13
        51   59.782432          19852   316            330            1062           0              18144          7.6854045e-13
        52   60.886076          20239   317            331            1083           0              18508          7.7654711e-13
        53   61.994606          20626   319            331            1103           0              18873          7.850347e-13 
        54   63.117241          21037   319            332            1128           0              19258          7.9348718e-13
        55   64.305682          21422   321            333            1147           0              19621          8.0186919e-13
        56   65.533189          21820   324            335            1171           0              19990          8.106943e-13 
        57   66.812646          22211   326            337            1195           0              20353          8.1996665e-13
        58   68.080813          22645   333            338            1228           0              20746          8.3005715e-13
        59   69.353427          23036   334            338            1266           2              21096          8.4023268e-13
        60   70.749622          23440   336            339            1289           4              21472          8.5076214e-13
        61   72.057357          23843   336            344            1321           4              21838          8.614958e-13 
        62   73.394012          24260   338            344            1355           7              22216          8.7228513e-13
        63   74.735105          24656   339            344            1383           11             22579          8.8291705e-13
        64   76.118877          25046   342            344            1409           16             22935          8.9339166e-13
        65   77.503224          25442   343            344            1434           21             23300          9.0422387e-13
        66   78.899336          25851   346            346            1463           25             23671          9.1478407e-13
        67   80.322538          26251   348            347            1495           31             24030          9.2537277e-13
        68   81.797216          26655   349            349            1521           39             24397          9.3599378e-13
        69   83.320955          27051   351            349            1543           45             24763          9.4679057e-13
        70   84.982989          27451   352            350            1583           50             25116          9.5810973e-13
        71   86.617898          27862   354            350            1613           55             25490          9.7010683e-13
        72   88.301943          28283   354            351            1659           58             25861          9.8274466e-13
        73   89.971573          28677   355            351            1695           69             26207          9.9646106e-13
        74   91.68407           29087   356            352            1738           76             26565          1.0106584e-12
        75   93.410279          29486   359            352            1774           85             26916          1.0255766e-12
        76   95.130274          29871   363            353            1803           99             27253          1.0408046e-12
        77   96.845137          30293   364            353            1850           102            27624          1.0565766e-12
        78   98.593918          30691   364            355            1896           108            27968          1.0720408e-12
        79   100.37636          31112   364            355            1952           114            28327          1.087532e-12 
        80   102.28944          31508   367            355            1988           129            28669          1.1031224e-12
        81   104.16119          31909   367            355            2032           138            29017          1.1191858e-12
        82   106.05883          32299   367            355            2078           147            29352          1.1352208e-12
        83   108.02501          32696   367            356            2126           156            29691          1.1514972e-12
        84   110.04143          33138   368            356            2195           167            30052          1.1686305e-12
        85   112.13288          33533   369            357            2244           181            30382          1.1862547e-12
        86   114.25634          33954   369            357            2303           195            30730          1.2054685e-12
        87   116.40474          34350   370            357            2365           207            31051          1.2256749e-12
        88   118.57103          34740   370            357            2431           217            31365          1.2463997e-12
        89   120.76291          35132   370            357            2492           225            31688          1.2677593e-12
        90   123.07766          35539   371            357            2556           241            32014          1.2894619e-12
        91   125.34984          35933   371            358            2628           250            32326          1.3114175e-12
        92   127.56199          36343   371            358            2707           263            32644          1.3332743e-12
        93   129.81893          36714   371            358            2769           277            32939          1.3546684e-12
        94   132.03626          37124   372            359            2838           288            33267          1.3759557e-12
        95   134.36556          37512   373            359            2913           299            33568          1.3964216e-12
        96   136.77666          37922   373            359            2981           310            33899          1.417263e-12 
        97   139.22051          38294   373            359            3045           330            34187          1.4386076e-12
        98   141.70098          38691   374            359            3103           345            34510          1.4600984e-12
        99   144.23018          39077   374            359            3190           352            34802          1.4819475e-12
       100   146.91857          39489   375            359            3261           367            35127          1.50427e-12  
       101   149.58994          39874   375            359            3332           382            35426          1.5273829e-12
       102   152.24174          40265   375            359            3409           395            35727          1.5512118e-12
       103   154.94081          40649   375            359            3485           407            36023          1.5751667e-12
       104   157.68401          41032   376            359            3566           421            36310          1.599109e-12 
       105   160.44495          41413   376            359            3636           435            36607          1.6230018e-12
       106   163.2327           41814   376            359            3730           444            36905          1.6467561e-12
       107   166.06968          42197   377            359            3814           458            37189          1.6699247e-12
       108   168.87585          42592   377            359            3893           474            37489          1.6928744e-12
       109   171.75666          42989   377            359            3983           486            37784          1.7149382e-12
       110   174.82887          43379   378            359            4069           498            38075          1.7365963e-12
       111   177.86568          43773   378            359            4156           503            38377          1.7580921e-12
       112   180.9568           44156   378            359            4246           510            38663          1.7797627e-12
       113   184.05937          44533   378            359            4327           519            38950          1.8014598e-12
       114   187.26522          44934   378            359            4427           526            39244          1.8232391e-12
       115   190.51096          45328   379            359            4505           536            39549          1.8462365e-12
       116   193.78519          45696   379            359            4596           547            39815          1.8699875e-12
       117   197.11196          46106   379            359            4686           557            40125          1.8943368e-12
       118   200.4829           46466   379            359            4770           570            40388          1.9188417e-12
       119   203.90677          46887   379            359            4873           592            40684          1.9434542e-12
       120   207.52164          47272   379            359            4968           605            40961          1.9683079e-12
       121   211.03688          47657   380            359            5040           626            41252          1.9933663e-12
       122   214.61902          48053   380            359            5139           650            41525          2.0184968e-12
       123   218.23965          48464   380            359            5242           679            41804          2.0435768e-12
       124   221.9214           48861   380            359            5314           712            42096          2.0693426e-12
       125   225.65466          49249   380            359            5408           743            42359          2.0955221e-12
       126   229.44428          49638   381            359            5487           780            42631          2.1226237e-12
       127   233.26852          50060   381            359            5592           806            42922          2.1510357e-12
       128   237.14386          50426   382            359            5670           849            43166          2.1796755e-12
       129   241.07792          50860   383            358            5775           892            43452          2.2091122e-12
       130   245.36483          51245   382            358            5880           927            43698          2.2390847e-12
       131   249.39342          51667   381            358            5956           982            43990          2.2692544e-12
       132   253.46428          52059   381            358            6064           1015           44241          2.2991953e-12
       133   257.58725          52471   381            358            6164           1060           44508          2.3292204e-12
       134   261.77264          52900   381            358            6252           1111           44798          2.3592513e-12
       135   266.01842          53302   381            358            6362           1157           45044          2.3895923e-12
       136   270.32676          53734   382            358            6455           1207           45332          2.420469e-12 
       137   274.70259          54133   382            357            6564           1254           45576          2.4526994e-12
       138   279.11734          54559   382            357            6656           1318           45846          2.4858085e-12
       139   283.60006          54974   384            356            6741           1375           46118          2.5200492e-12
       140   288.54399          55382   385            356            6845           1430           46366          2.5552548e-12
       141   293.13166          55830   385            356            6963           1482           46644          2.5912253e-12
       142   297.78117          56237   385            356            7036           1552           46908          2.6280839e-12
       143   302.48188          56638   385            356            7152           1600           47145          2.6649329e-12
       144   307.2464           57097   385            356            7285           1655           47416          2.7028114e-12
       145   312.0558           57508   386            356            7390           1702           47674          2.7408395e-12
       146   316.93199          57963   386            355            7522           1754           47946          2.7786634e-12
       147   321.87358          58404   386            355            7673           1800           48190          2.8172612e-12
       148   326.88906          58824   385            355            7787           1846           48451          2.8574539e-12
       149   331.94703          59290   385            355            7935           1900           48715          2.8993945e-12
       150   337.22706          59742   385            355            8092           1949           48961          2.942845e-12 
       151   342.41992          60192   385            355            8233           2006           49213          2.9887966e-12
       152   347.70904          60654   385            355            8378           2060           49476          3.0360015e-12
       153   353.03885          61108   386            355            8536           2101           49730          3.0849369e-12
       154   358.44985          61554   386            353            8681           2159           49975          3.1357079e-12
       155   363.91465          62065   386            353            8873           2213           50240          3.1876246e-12
       156   369.46659          62532   385            353            9053           2256           50485          3.2406015e-12
       157   375.06567          63006   385            353            9223           2316           50729          3.2938539e-12
       158   380.76033          63505   385            353            9419           2358           50990          3.3489761e-12
       159   386.542            63993   385            353            9627           2400           51228          3.4053567e-12
       160   392.56694          64486   385            353            9817           2449           51482          3.4649116e-12
       161   398.51837          65015   385            352            10037          2499           51742          3.528276e-12 
       162   404.54475          65526   386            351            10249          2555           51985          3.5957577e-12
       163   410.67412          66044   386            351            10473          2606           52228          3.6660685e-12
       164   416.91538          66620   386            350            10739          2659           52486          3.739977e-12 
       165   423.24893          67171   386            350            10997          2701           52737          3.8168416e-12
       166   429.67069          67718   385            350            11252          2759           52972          3.8967196e-12
       167   436.20886          68308   385            350            11545          2810           53218          3.9785408e-12
       168   442.84194          68907   385            349            11826          2871           53476          4.0673579e-12
       169   449.57606          69509   384            349            12145          2929           53702          4.1624929e-12
       170   456.60199          70133   383            349            12453          2986           53962          4.2676067e-12
       171   463.57563          70789   383            349            12815          3039           54203          4.3837631e-12
       172   470.66368          71456   383            348            13194          3093           54438          4.510694e-12 
       173   477.90105          72176   383            348            13595          3157           54693          4.6471408e-12
       174   485.29486          72895   383            348            13997          3231           54936          4.7894019e-12
       175   492.80423          73647   383            347            14450          3297           55170          4.9342169e-12
       176   500.45338          74377   382            346            14879          3378           55392          5.0796021e-12
       177   508.24754          75158   382            346            15324          3443           55663          5.2228717e-12
       178   516.16579          75903   382            343            15790          3511           55877          5.3710475e-12
       179   524.24034          76609   380            342            16208          3578           56101          5.5116648e-12
       180   532.61109          77457   378            341            16720          3671           56347          5.6686186e-12
       181   540.94837          78229   378            341            17178          3750           56582          5.8262208e-12
       182   549.4254           79034   378            341            17686          3831           56798          5.9857814e-12
       183   558.07039          79848   376            341            18179          3923           57029          6.1446607e-12
       184   566.85899          80652   375            341            18666          4028           57242          6.2984566e-12
       185   575.75976          81476   375            340            19191          4108           57462          6.4615827e-12
       186   584.78564          82287   375            338            19666          4216           57692          6.6203303e-12
       187   593.88439          83155   375            337            20203          4330           57910          6.7966852e-12
       188   603.11048          84007   375            337            20723          4468           58104          6.9668685e-12
       189   612.43372          84867   375            336            21226          4606           58324          7.134251e-12 
       190   622.01412          85760   374            335            21798          4725           58528          7.3178113e-12
       191   631.50557          86589   372            334            22319          4845           58719          7.490761e-12 
       192   641.1054           87481   372            333            22885          4980           58911          7.6724097e-12
       193   650.74905          88428   372            333            23480          5109           59134          7.8660635e-12
       194   660.46084          89274   370            330            24034          5253           59287          8.0556201e-12
       195   670.33596          90231   370            328            24635          5432           59466          8.2537871e-12
       196   680.1415           91141   367            326            25186          5611           59651          8.4410035e-12
       197   690.07859          92079   367            324            25776          5782           59830          8.6404573e-12
       198   700.00077          93067   366            321            26431          5974           59975          8.8583309e-12
       199   710.02386          94021   365            319            27071          6150           60116          9.0708104e-12
       200   720.33849          94991   363            318            27700          6352           60258          9.2749867e-12
       201   730.49426          95917   363            315            28254          6573           60412          9.4679037e-12
       202   740.71656          96826   361            312            28788          6823           60542          9.6657249e-12
       203   751.00553          97836   360            309            29442          7061           60664          9.8789528e-12
       204   761.30007          98711   360            306            29980          7292           60773          1.0063597e-11
       205   771.64282          99638   356            302            30548          7545           60887          1.0269049e-11
       206   782.02883         100478   353            299            31050          7785           60991          1.0430436e-11
       207   792.47848         101437   351            298            31659          8028           61101          1.0624433e-11
       208   802.978           102306   347            295            32181          8289           61194          1.0776709e-11
       209   813.49637         103152   345            289            32694          8559           61265          1.0953352e-11
       210   824.28368         103940   342            285            33133          8832           61348          1.108079e-11 
       211   834.88099         104712   339            281            33516          9156           61420          1.1220005e-11
       212   845.53134         105528   336            277            33986          9440           61489          1.1346965e-11
       213   856.25506         106263   331            274            34408          9696           61554          1.1479262e-11
       214   867.01659         106974   329            265            34829          9944           61607          1.1569217e-11
       215   877.80073         107750   321            257            35318          10173          61681          1.1694996e-11
       216   888.62763         108401   312            252            35691          10403          61743          1.1763994e-11
       217   899.46541         109084   308            243            36090          10649          61794          1.183298e-11 
       218   910.36246         109667   302            238            36421          10875          61831          1.189038e-11 
       219   921.28252         110277   295            231            36781          11094          61876          1.195477e-11 
       220   932.48431         110906   288            227            37137          11333          61921          1.201439e-11 
       221   943.44501         111432   281            216            37380          11605          61950          1.2060838e-11
       222   954.48401         112115   272            210            37783          11854          61996          1.2083065e-11
       223   965.58064         112638   258            202            37992          12145          62041          1.2110991e-11
       224   976.66468         113124   248            190            38198          12412          62076          1.2153379e-11
       225   987.76355         113556   243            184            38330          12686          62113          1.2151614e-11
       226   998.85483         114176   236            170            38621          12998          62151          1.2177218e-11
       227   1010.0285         114695   217            161            38812          13329          62176          1.2189372e-11
       228   1021.247          115226   207            147            39008          13650          62214          1.2225518e-11
       229   1032.4723         115673   196            139            39164          13935          62239          1.2223836e-11
       230   1043.9959         116109   175            130            39255          14278          62271          1.222708e-11 
       231   1055.306          116669   164            123            39444          14648          62290          1.2249954e-11
       232   1066.6947         117140   158            113            39528          15023          62318          1.2244357e-11
       233   1078.0828         117554   147            110            39579          15370          62348          1.2231191e-11
       234   1089.5301         117993   140            105            39690          15682          62376          1.2236635e-11
       235   1101.0173         118410   130            97             39792          15994          62397          1.2235976e-11
       236   1112.5106         118859   125            88             39858          16360          62428          1.2234618e-11
       237   1124.0559         119260   120            86             39877          16706          62471          1.2186924e-11
       238   1135.6302         119675   114            77             39934          17055          62495          1.2196475e-11
       239   1147.2367         120109   106            73             40024          17385          62521          1.2204228e-11
       240   1159.2235         120558   95             64             40127          17728          62544          1.2197377e-11
       241   1170.9077         120978   87             60             40222          18048          62561          1.2191718e-11
       242   1182.6007         121363   82             55             40252          18386          62588          1.217742e-11 
       243   1194.3728         121743   74             50             40273          18730          62616          1.2168311e-11
       244   1206.1931         122118   71             48             40296          19063          62640          1.217115e-11 
       245   1218.0598         122537   66             47             40365          19385          62674          1.2156349e-11
       246   1229.9446         122873   60             43             40367          19712          62691          1.2138265e-11
       247   1241.8756         123342   55             40             40493          20037          62717          1.2145178e-11
       248   1253.8529         123779   51             34             40550          20408          62736          1.2163504e-11
       249   1265.9127         124135   50             33             40522          20765          62765          1.2143496e-11
       250   1278.2676         124585   46             31             40631          21083          62794          1.2144644e-11
       251   1290.3975         124919   42             30             40641          21399          62807          1.21369e-11  
       252   1302.555          125296   42             29             40689          21701          62835          1.2133887e-11
       253   1314.7577         125703   40             28             40772          22000          62863          1.2144696e-11
       254   1327.0028         126010   38             27             40743          22321          62881          1.2114372e-11
       255   1339.2941         126489   35             26             40849          22675          62904          1.2103256e-11
       256   1351.628          126823   34             26             40834          23001          62928          1.2111645e-11
       257   1363.9841         127167   33             24             40818          23344          62948          1.2099289e-11
       258   1376.408          127554   33             23             40820          23707          62971          1.210646e-11 
       259   1388.85           127871   31             22             40736          24093          62989          1.2092189e-11
       260   1401.6389         128325   31             22             40780          24478          63014          1.2112343e-11
       261   1414.1742         128710   31             21             40756          24869          63033          1.2121534e-11
       262   1426.7976         128974   31             21             40610          25257          63055          1.2072184e-11
       263   1439.4559         129341   31             21             40561          25647          63081          1.2085012e-11
       264   1452.1346         129637   31             21             40456          26030          63099          1.2061111e-11
       265   1464.9034         130082   31             20             40444          26461          63126          1.2086665e-11
       266   1477.6937         130457   30             19             40365          26899          63144          1.2096377e-11
       267   1490.5594         130769   30             19             40162          27390          63168          1.2097981e-11
       268   1503.4457         131171   30             18             40109          27826          63188          1.2099335e-11
       269   1516.3837         131452   29             17             39838          28356          63212          1.2091821e-11
       270   1529.6236         131815   29             17             39680          28859          63230          1.2084799e-11
       271   1542.6296         132175   28             17             39520          29353          63257          1.2094189e-11
       272   1555.7016         132492   28             17             39336          29839          63272          1.210717e-11 
       273   1568.7614         132894   28             17             39240          30311          63298          1.2111592e-11
       274   1581.8579         133223   28             17             39100          30761          63317          1.2102137e-11
       275   1594.9161         133569   28             17             38934          31248          63342          1.2131206e-11
       276   1608.1277         133872   26             17             38745          31724          63360          1.2131979e-11
       277   1621.4237         134290   25             17             38682          32183          63383          1.2137376e-11
       278   1634.7383         134543   25             17             38409          32689          63403          1.2133543e-11
       279   1648.0679         134919   25             17             38302          33149          63426          1.213979e-11 
       280   1661.7575         135224   25             17             38117          33618          63447          1.2119806e-11
       281   1675.0785         135657   25             17             38049          34101          63465          1.2167836e-11
       282   1688.4598         135950   25             17             37857          34562          63489          1.2158494e-11
       283   1701.87           136355   25             17             37750          35050          63513          1.2210494e-11
       284   1715.4544         136671   25             17             37573          35525          63531          1.2181276e-11
       285   1728.9881         137005   25             17             37474          35933          63556          1.221469e-11 
       286   1742.5581         137320   25             17             37276          36429          63573          1.2204428e-11
       287   1756.3419         137709   25             16             37220          36852          63596          1.2235632e-11
       288   1769.9776         137999   25             16             37062          37280          63616          1.2226265e-11
       289   1783.734          138358   25             16             37048          37634          63635          1.2227624e-11
       290   1797.8373         138691   25             16             36963          38031          63656          1.2244717e-11
       291   1811.6004         139044   25             16             36880          38445          63678          1.2278564e-11
       292   1825.6011         139371   24             16             36826          38809          63696          1.2268041e-11
       293   1839.5246         139663   24             16             36732          39168          63723          1.2262729e-11
       294   1853.4086         140017   24             16             36690          39550          63737          1.2303418e-11
       295   1867.3262         140285   24             16             36558          39924          63763          1.2313639e-11
       296   1881.2971         140690   23             16             36588          40285          63778          1.2326706e-11
       297   1895.3218         141054   23             16             36548          40663          63804          1.2327019e-11
       298   1909.5923         141366   23             16             36500          41005          63822          1.2316923e-11
       299   1923.7224         141627   23             16             36383          41358          63847          1.2327493e-11
       300   1938.187          141922   23             16             36306          41716          63861          1.2337921e-11
       301   1952.4253         142251   23             16             36272          42054          63886          1.2360717e-11
       302   1966.7309         142624   23             16             36289          42393          63903          1.2373826e-11
       303   1981.0771         142960   23             16             36249          42744          63928          1.2381546e-11
       304   1995.4394         143358   23             16             36285          43088          63946          1.2416455e-11
       305   2009.9248         143621   23             16             36195          43419          63968          1.2398464e-11
       306   2024.3676         143885   23             16             36140          43720          63986          1.2405859e-11
       307   2038.8227         144251   23             16             36180          44022          64010          1.243237e-11 
       308   2053.3775         144520   22             16             36078          44375          64029          1.2423467e-11
       309   2067.9299         144877   22             16             36063          44724          64052          1.2434474e-11
       310   2082.8363         145236   22             16             36099          45028          64071          1.2435335e-11
       311   2097.493          145517   22             16             36001          45384          64094          1.2451719e-11
       312   2112.1879         145732   22             16             35883          45699          64112          1.2480342e-11
       313   2126.8891         146094   22             16             35922          45997          64137          1.2487263e-11
       314   2141.6739         146521   22             16             36025          46306          64152          1.2487482e-11
       315   2156.6118         146731   22             16             35867          46650          64176          1.2472356e-11
       316   2171.5003         147122   22             16             35920          46970          64194          1.2520513e-11
       317   2186.4289         147447   22             16             35899          47294          64216          1.2510821e-11
       318   2201.4104         147700   22             16             35826          47600          64236          1.2517187e-11
       319   2216.4433         147995   22             16             35810          47892          64255          1.2546837e-11
       320   2231.8257         148360   22             16             35853          48189          64280          1.2553795e-11
Loop time of 2231.83 on 16 procs for 320 steps with 148360 atoms

97.4% CPU use with 16 MPI tasks x 1 OpenMP threads

MPI task timing breakdown:
Section |  min time  |  avg time  |  max time  |%varavg| %total
---------------------------------------------------------------
Pair    | 566.25     | 633.42     | 762.91     | 290.4 | 28.38
Neigh   | 465.63     | 551.47     | 752.91     | 448.7 | 24.71
Comm    | 204.57     | 235.96     | 269.26     | 152.6 | 10.57
Output  | 49.837     | 49.837     | 49.838     |   0.0 |  2.23
Modify  | 411.08     | 749.67     | 929.15     | 702.1 | 33.59
Other   |            | 11.47      |            |       |  0.51

Nlocal:         9272.5 ave       12936 max        7892 min
Histogram: 8 3 1 0 0 0 0 0 3 1
Nghost:         7230.5 ave        9577 max        6067 min
Histogram: 3 6 2 1 0 0 0 0 3 1
Neighs:        90052.6 ave      100147 max       84339 min
Histogram: 4 3 2 0 3 0 0 1 2 1

Total # of neighbors = 1440841
Ave neighs/atom = 9.7117889
Neighbor list builds = 28042
Dangerous builds = 27722

Total wall time: 0:37:42
