LAMMPS (23 Jun 2022 - Update 4)
  using 1 OpenMP thread(s) per MPI task
package omp 0
using multi-threaded neighbor list subroutines
#-----------------------------------------------------------------------------#
#                NUFEB Simulation: Heterotrophic Biofilm Growth               #
#-----------------------------------------------------------------------------#


#-----------------------------System Settings---------------------------------#

units si                                    # using si units (m, s, kg)
atom_style      coccus                      # using nufeb coccus atom style
atom_modify     map array sort 10 0         # map array - find atoms using indices
		                            # sort every 10

boundary        pp pp ff                    # periodic boundaries in x and y
                                            # fixed boundary in z

newton          off                         # forces between local and ghost
                                            # atoms are computed in each
					     # processor without communication

processors      * * 1                       # processor grid

comm_modify     vel yes                     # communicate velocities for ghost atoms

read_data       atom_ch.in	             # read atom.in file which defines domain size
Reading data file ...
  orthogonal box = (0 0 0) to (6e-05 6e-05 6e-05)
  4 by 4 by 1 MPI processor grid
  reading atoms ...
  150 atoms
  read_data CPU = 0.018 seconds
                                            # and initial atoms


#--------------------Microbes and Functional Groups-------------------------#

group           CROSS1   type 1               # assign type 1,2 atoms to CROSS group
50 atoms in group CROSS1
group           CROSS2   type 2
50 atoms in group CROSS2
group		CHEATER  type 3
50 atoms in group CHEATER
group           dead     type 4
0 atoms in group dead
group		EPS	 type 5
0 atoms in group EPS

neighbor        5e-7 bin                   # setting neighbour skin distance and style

neigh_modify    check yes                  # rebuild neighbour list if any atom
                                           # had moved more than half the skin distance


#--------------------------Mesh Grid and Substrates--------------------------#

# defining grid sytle, substrate names, and grid size
grid_style      nufeb/chemostat 3 sub metab1 metab2 5e-6

# set diffusion boundary conditions and initial concentrations (liquid:kg/m3)
grid_modify     set sub      pp pp nd  1.8e-4
No /omp style for force computation currently active
grid_modify     set metab1   pp pp nd  1e-4
No /omp style for force computation currently active
grid_modify     set metab2   pp pp nd  1e-4
No /omp style for force computation currently active


#--------------------------Biological Processes-------------------------------#

# heterotrophs growth
fix growth_cross1 CROSS1 nufeb/growth/cross1 sub 3.5e-5 metab2 4e-3 metab1 growth 0.009 yield 0.6 decay 2.6e-6 metab1_exp 20 epsyield 0.12 epsdens 30

fix growth_cross2 CROSS2 nufeb/growth/cross2 sub 3.5e-5 metab1 4e-3 metab2 growth 0.009 yield 0.6 decay 2.6e-6 metab2_exp 20 epsyield 0.12 epsdens 30

fix growth_cheater CHEATER nufeb/growth/cheater sub 3.5e-5 metab1 1e-3 metab2 1e-3 growth 0.009 yield 0.6 decay 2.6e-6

# heterotrophs division, division diameter: 1.36e-6
fix div1 CROSS1 nufeb/division/coccus 1.36e-6 2219
fix div2 CROSS2 nufeb/division/coccus 1.36e-6 8570
fix div3 CHEATER nufeb/division/coccus 1.36e-6 19153

fix death1 CROSS1 nufeb/death/diameter dead 5.43e-7
fix death2 CROSS2 nufeb/death/diameter dead 5.43e-7
fix death3 CHEATER nufeb/death/diameter dead 5.43e-7

# EPS secretion from heterotrophs
fix eps1 CROSS1 nufeb/eps_secretion 5 EPS 1.1 30 33968
fix eps2 CROSS2 nufeb/eps_secretion 5 EPS 1.1 30 53015

#---------------------------Physical Processes--------------------------------#

pair_style  gran/hooke/history 1e-4 NULL 1e-5 NULL 0.0 0    # pairwise interaction
pair_coeff  * *                                             # between atoms

# pairwise interaction between z-wall and atoms
fix wall all wall/gran hooke/history 1e-3 NULL 1e-4 NULL 0 0 zplane 0.0 1e-04

fix vis all viscous 1e-5                                    # viscous damping force

fix grav all gravity 9.81 vector 0.0 0.0 -1.0

fix nve all nve/limit 1e-7                                  # NVE integration with
                                                            # maximum distance limit


#---------------------------Post-Physical Processes---------------------------#

fix coeff_sub all nufeb/diffusion_coeff sub ratio 0.8       # defining diffusion coeff in the biofilm
fix coeff_metab1 all nufeb/diffusion_coeff metab1 ratio 0.8    # region is 80% of the value in liquid
fix coeff_metab2 all nufeb/diffusion_coeff metab2 ratio 0.8

#---------------------------Chemical Processes---------------------------------#

fix diff_sub all nufeb/diffusion_reaction sub 1e-9        # diffusion reaction for updating
fix diff_metab1 all nufeb/diffusion_reaction metab1 4e-9     # distribusion of substrate concentration
fix diff_metab2 all nufeb/diffusion_reaction metab2 4e-9

#--------------------------Computations and Outputs----------------------------#

variable mass equal "mass(all)"                             # total mass
variable ncross1 equal "count(CROSS1)"                      # total # of CROSS1
variable ncross2 equal "count(CROSS2)"                      # total # of CROSS2
variable ncheater equal "count(CHEATER)"
variable ndead equal "count(dead)"
variable neps equal "count(EPS)"

shell mkdir vtk_EPS_ch                                            # dump vtk files to /vtk folder
dump du1 all vtk 10 vtk_EPS_ch/dump*.vtu id type diameter         # require build NUFEB with vtk option
dump du2 all grid/vtk 10 vtk_EPS_ch/dump_%_*.vti con rea den gro

#dump du3 all movie 10 movie.avi type diameter view 80 60    # dump video
#dump_modify du3 acolor 1 blue acolor 2 lightgrey framerate 10


                                                            # dump hdf5 files to /hdf5 folder
#shell mkdir hdf5                                           # require build NUFEB with hdf5 option
#dump du3 all nufeb/hdf5 10 dump.h5 id type x y z vx vy vz fx fy fz radius conc reac

thermo_style custom step cpu atoms v_ncross1 v_ncross2 v_ncheater v_ndead v_neps v_mass     # screen and log outputs
thermo 1
thermo_modify   lost ignore

#-----------------------------------Run----------------------------------------#

# issue run command, define timesteps for physical (pairdt) and chemical (diffdt) processes
run_style nufeb diffdt 1e-4 difftol 1e-6 pairdt 1e-2 pairtol 1 pairmax 1000 diffmax 5000

timestep 12000                                               # define biological timesteps (1000s)

run 320                                                    # growing biofilm for 900x1000s
Generated 0 of 6 mixed pair_coeff terms from geometric mixing rule
Last active /omp style is pair_style gran/hooke/history/omp
Neighbor list info ...
  update every 1 steps, delay 10 steps, check yes
  max neighbors/atom: 2000, page size: 100000
  master list distance cutoff = 2.49e-06
  ghost atom cutoff = 2.49e-06
  binsize = 1.245e-06, bins = 49 49 49
  1 neighbor lists, perpetual/occasional/extra = 1 0 0
  (1) pair gran/hooke/history/omp, perpetual
      attributes: half, newton off, size, history, omp
      pair build: half/size/bin/newtoff/omp
      stencil: full/bin/3d
      bin: standard
Per MPI rank memory allocation (min/avg/max) = 11.02 | 11.02 | 11.02 Mbytes
   Step          CPU          Atoms      v_ncross1      v_ncross2      v_ncheater      v_ndead         v_neps         v_mass    
         0   0                    150   50             50             50             0              0              1.3295396e-13
         1   0.38324267           432   90             85             86             0              171            1.7278909e-13
         2   0.76550333           787   117            127            135            0              408            1.9508091e-13
         3   1.0965861           1108   128            143            174            0              663            2.144396e-13 
         4   1.3959208           1421   136            153            198            0              934            2.3254552e-13
         5   1.6195519           1733   142            156            217            0              1218           2.5001059e-13
         6   1.7937875           2049   146            165            238            0              1500           2.67171e-13  
         7   1.9558426           2388   155            175            254            0              1804           2.8406586e-13
         8   2.0924038           2722   164            183            264            0              2111           3.0055092e-13
         9   2.2205137           3082   169            189            287            0              2437           3.1689623e-13
        10   10.217595           3459   174            205            309            0              2771           3.3276276e-13
        11   10.330363           3841   177            214            328            0              3122           3.4828532e-13
        12   10.460448           4230   186            220            351            0              3473           3.635066e-13 
        13   10.565476           4627   191            228            359            0              3849           3.7849614e-13
        14   10.669433           5014   196            233            377            0              4208           3.9282256e-13
        15   10.778743           5418   202            238            396            0              4582           4.0679067e-13
        16   10.912662           5832   208            245            415            0              4964           4.2036193e-13
        17   11.029089           6234   213            246            433            0              5342           4.3318164e-13
        18   11.115432           6628   218            251            445            0              5714           4.4592833e-13
        19   11.194034           7028   221            255            469            0              6083           4.5807299e-13
        20   14.621182           7443   225            258            484            0              6476           4.7008665e-13
        21   14.710495           7824   227            260            496            0              6841           4.8179129e-13
        22   14.799319           8223   231            264            506            0              7222           4.9314805e-13
        23   14.876626           8628   234            266            521            0              7607           5.0424887e-13
        24   14.968999           9023   238            270            537            0              7978           5.1458224e-13
        25   15.082505           9391   243            272            545            0              8331           5.2483498e-13
        26   15.187083           9817   247            281            561            0              8728           5.3476973e-13
        27   15.281412          10210   251            284            570            0              9105           5.4414639e-13
        28   15.390912          10617   254            287            580            0              9496           5.5363709e-13
        29   15.484678          11028   262            293            597            0              9876           5.6269564e-13
        30   15.630828          11433   267            296            611            0              10259          5.7148719e-13
        31   15.726624          11856   274            298            620            0              10664          5.8015154e-13
        32   15.84481           12269   274            303            635            0              11057          5.8850882e-13
        33   15.970912          12673   274            306            647            0              11446          5.9668546e-13
        34   16.130538          13069   278            308            661            0              11822          6.0460595e-13
        35   16.314803          13495   280            311            675            0              12229          6.1243202e-13
        36   16.477667          13905   283            312            689            0              12621          6.1980219e-13
        37   16.858976          14303   285            315            701            0              13002          6.2710329e-13
        38   17.138601          14702   288            317            712            0              13385          6.3392275e-13
        39   17.460443          15114   288            323            723            0              13780          6.4084444e-13
        40   18.091172          15522   289            323            734            0              14176          6.4703948e-13
        41   18.565484          15901   292            326            739            0              14544          6.5248664e-13
        42   19.317036          16309   293            328            747            0              14941          6.5777209e-13
        43   20.215352          16722   299            332            755            0              15336          6.629637e-13 
        44   21.060777          17128   304            334            762            0              15728          6.6774155e-13
        45   21.933413          17537   308            336            771            0              16122          6.7253538e-13
        46   22.840649          17962   309            338            780            0              16535          6.7706824e-13
        47   23.754913          18348   313            340            786            0              16909          6.8133373e-13
        48   24.665655          18779   315            340            794            0              17330          6.857407e-13 
        49   25.610763          19160   316            341            796            0              17707          6.8967112e-13
        50   26.667146          19562   317            341            798            0              18106          6.9357954e-13
        51   27.673225          19961   320            343            803            0              18495          6.9751458e-13
        52   28.704056          20376   325            343            809            0              18899          7.0170683e-13
        53   29.763741          20784   327            346            818            0              19293          7.0605717e-13
        54   30.863782          21205   330            346            825            0              19704          7.1087081e-13
        55   31.964988          21603   330            348            837            0              20088          7.1581728e-13
        56   33.111197          22012   332            350            845            1              20484          7.2080231e-13
        57   34.296059          22428   336            351            854            1              20886          7.2600483e-13
        58   35.508918          22833   337            351            868            1              21276          7.3164473e-13
        59   36.746383          23247   338            353            880            1              21675          7.3768651e-13
        60   38.083517          23662   340            353            896            1              22072          7.4394177e-13
        61   39.395846          24104   343            357            911            1              22492          7.5058584e-13
        62   40.749397          24484   344            357            927            1              22855          7.573658e-13 
        63   42.084371          24921   346            358            947            1              23269          7.6483014e-13
        64   43.454785          25324   346            358            961            4              23655          7.7218528e-13
        65   44.873604          25743   346            359            976            5              24057          7.799631e-13 
        66   46.298094          26154   349            360            998            5              24442          7.8797472e-13
        67   47.73689           26571   350            362            1020           5              24834          7.9608437e-13
        68   49.244189          26989   352            363            1039           9              25226          8.0437823e-13
        69   50.693507          27399   352            363            1065           12             25607          8.1299676e-13
        70   52.249656          27818   353            365            1087           14             25999          8.2150582e-13
        71   53.782047          28237   353            367            1107           17             26393          8.3001929e-13
        72   55.357678          28639   354            368            1113           28             26776          8.3868595e-13
        73   56.94388           29057   355            368            1138           33             27163          8.4751195e-13
        74   58.544127          29464   356            369            1162           37             27540          8.5637402e-13
        75   60.23584           29894   357            371            1180           44             27942          8.6538638e-13
        76   62.008312          30302   359            372            1199           48             28324          8.7474356e-13
        77   63.804468          30720   361            373            1224           56             28706          8.8500713e-13
        78   65.687431          31157   361            375            1253           62             29106          8.959001e-13 
        79   67.592834          31557   361            375            1285           69             29467          9.0780447e-13
        80   69.602986          31977   362            376            1306           74             29859          9.2038139e-13
        81   71.544202          32377   362            377            1337           84             30217          9.3364144e-13
        82   73.516477          32789   362            377            1368           92             30590          9.4735876e-13
        83   75.491831          33205   362            378            1407           96             30962          9.6186847e-13
        84   77.502087          33620   362            378            1452           101            31327          9.7631208e-13
        85   79.530946          34012   364            379            1482           113            31674          9.9097995e-13
        86   81.546284          34433   364            379            1517           119            32054          1.0058617e-12
        87   83.590124          34827   364            379            1548           125            32411          1.0202398e-12
        88   85.680375          35236   364            380            1595           132            32765          1.0345392e-12
        89   87.852754          35643   364            382            1633           138            33126          1.0487903e-12
        90   90.109678          36068   364            384            1681           147            33492          1.063571e-12 
        91   92.342558          36486   365            385            1733           157            33846          1.0783194e-12
        92   94.601044          36891   365            385            1770           165            34206          1.0933408e-12
        93   96.952133          37290   366            386            1807           174            34557          1.1085551e-12
        94   99.389719          37677   366            387            1836           186            34902          1.1251397e-12
        95   101.8282           38075   367            387            1890           192            35239          1.142678e-12 
        96   104.33291          38486   368            387            1943           203            35585          1.1610059e-12
        97   106.89951          38894   368            387            2007           208            35924          1.1808052e-12
        98   109.47732          39277   368            388            2065           218            36238          1.201712e-12 
        99   112.05524          39679   369            388            2122           227            36573          1.2236568e-12
       100   114.79789          40078   369            388            2188           238            36895          1.2459941e-12
       101   117.45361          40466   369            388            2252           246            37211          1.2687235e-12
       102   120.11744          40863   369            388            2324           255            37527          1.2919104e-12
       103   122.79007          41250   369            388            2393           263            37837          1.3154887e-12
       104   125.49519          41640   369            388            2467           271            38145          1.3388671e-12
       105   128.21608          42018   370            388            2541           274            38445          1.3621311e-12
       106   131.01976          42418   370            388            2628           282            38750          1.3850783e-12
       107   133.87106          42798   370            388            2713           287            39040          1.4080499e-12
       108   136.7793           43186   370            388            2775           300            39353          1.4314598e-12
       109   139.74873          43553   370            388            2849           311            39635          1.4549761e-12
       110   142.86309          43950   370            388            2936           324            39932          1.479103e-12 
       111   145.93066          44318   370            388            3008           337            40215          1.50338e-12  
       112   149.03497          44677   370            388            3078           344            40497          1.5285045e-12
       113   152.18406          45064   370            388            3159           359            40788          1.5544256e-12
       114   155.33585          45458   370            388            3257           374            41069          1.580677e-12 
       115   158.50953          45810   370            388            3349           386            41317          1.6070297e-12
       116   161.70647          46212   370            388            3445           401            41608          1.6336579e-12
       117   164.95598          46579   370            388            3523           414            41884          1.6598152e-12
       118   168.20335          46916   370            388            3602           427            42129          1.6856545e-12
       119   171.54623          47323   370            388            3705           436            42424          1.7111814e-12
       120   175.04518          47682   370            388            3805           444            42675          1.7366126e-12
       121   178.4673           48024   370            388            3884           452            42930          1.761928e-12 
       122   181.93125          48388   370            388            3977           463            43190          1.786963e-12 
       123   185.45815          48765   370            388            4059           485            43463          1.8120892e-12
       124   189.05634          49134   370            388            4159           503            43714          1.8373581e-12
       125   192.66811          49484   370            388            4247           512            43967          1.8628679e-12
       126   196.32736          49858   370            388            4347           523            44230          1.8888383e-12
       127   200.05496          50230   370            388            4452           539            44481          1.9148821e-12
       128   203.7981           50580   370            388            4544           553            44725          1.9413875e-12
       129   207.60149          50964   370            388            4651           569            44986          1.9678394e-12
       130   211.57782          51328   370            388            4757           591            45222          1.9943733e-12
       131   215.47679          51716   370            388            4864           611            45483          2.021053e-12 
       132   219.41737          52053   371            388            4950           627            45717          2.0475725e-12
       133   223.40708          52421   371            388            5049           643            45970          2.0738381e-12
       134   227.44191          52772   371            388            5148           657            46208          2.1002268e-12
       135   231.53449          53139   371            388            5254           674            46452          2.1264979e-12
       136   235.67283          53505   371            388            5354           698            46694          2.1523006e-12
       137   239.85204          53880   371            388            5460           720            46941          2.1784583e-12
       138   244.07655          54228   371            388            5541           747            47181          2.2045208e-12
       139   248.38409          54587   372            388            5633           775            47419          2.2304541e-12
       140   252.84846          54973   372            388            5736           808            47669          2.256792e-12 
       141   257.23138          55334   372            388            5833           830            47911          2.2834213e-12
       142   261.69356          55692   372            388            5937           858            48137          2.3105552e-12
       143   266.20161          56097   372            388            6051           892            48394          2.3376321e-12
       144   270.78191          56437   372            388            6129           924            48624          2.3646237e-12
       145   275.394            56810   372            388            6220           958            48872          2.3918685e-12
       146   280.07663          57199   373            388            6325           987            49126          2.4196198e-12
       147   284.81018          57574   373            388            6429           1020           49364          2.4473832e-12
       148   289.61287          57962   372            388            6540           1068           49594          2.4758844e-12
       149   294.47333          58372   372            388            6653           1109           49850          2.5045225e-12
       150   299.54638          58722   372            388            6735           1156           50071          2.5337025e-12
       151   304.5098           59088   371            388            6815           1204           50310          2.5635134e-12
       152   309.548            59478   371            388            6922           1240           50557          2.5933011e-12
       153   314.65138          59839   371            388            6996           1296           50788          2.6235895e-12
       154   319.83183          60262   371            388            7119           1348           51036          2.6541045e-12
       155   325.06324          60629   370            388            7209           1396           51266          2.6849633e-12
       156   330.38602          61029   370            388            7311           1447           51513          2.7162009e-12
       157   335.76678          61429   370            388            7393           1510           51768          2.7484068e-12
       158   341.20456          61812   370            388            7489           1567           51998          2.7815324e-12
       159   346.70609          62211   371            388            7592           1630           52230          2.8155251e-12
       160   352.42472          62622   370            388            7703           1687           52474          2.8513726e-12
       161   358.0633           63036   370            387            7833           1741           52705          2.8885013e-12
       162   363.80289          63450   370            386            7970           1780           52944          2.9267221e-12
       163   369.59699          63870   370            386            8121           1826           53167          2.9658426e-12
       164   375.47314          64290   370            386            8269           1873           53392          3.0057176e-12
       165   381.42569          64695   369            386            8380           1926           53634          3.0461533e-12
       166   387.46281          65138   370            385            8548           1965           53870          3.0869115e-12
       167   393.56897          65555   370            385            8696           2011           54093          3.1274307e-12
       168   399.74711          66000   370            383            8855           2056           54336          3.1687135e-12
       169   406.01478          66430   370            383            9013           2104           54560          3.2114311e-12
       170   412.52316          66880   370            383            9182           2160           54785          3.2553305e-12
       171   418.95989          67326   369            383            9336           2215           55023          3.3013122e-12
       172   425.47616          67748   370            382            9493           2266           55237          3.3494753e-12
       173   432.06305          68224   369            382            9677           2328           55468          3.3999508e-12
       174   438.70931          68671   369            382            9839           2391           55690          3.4518499e-12
       175   445.43655          69153   369            382            10017          2458           55927          3.5056742e-12
       176   452.25804          69625   369            381            10191          2527           56157          3.5618748e-12
       177   459.18163          70088   369            381            10388          2581           56369          3.6182903e-12
       178   466.17646          70574   368            381            10580          2646           56599          3.6756227e-12
       179   473.24683          71057   367            381            10769          2703           56837          3.7347073e-12
       180   480.57041          71549   367            380            11013          2755           57034          3.7969634e-12
       181   487.84935          72048   367            379            11215          2830           57257          3.8616044e-12
       182   495.20294          72592   366            379            11456          2889           57502          3.9307338e-12
       183   502.72145          73116   367            379            11695          2961           57714          4.0028873e-12
       184   510.26965          73601   365            378            11935          3023           57900          4.0795299e-12
       185   517.96685          74181   365            377            12196          3086           58157          4.1591917e-12
       186   525.75096          74753   365            377            12489          3145           58377          4.2412865e-12
       187   533.62074          75269   363            374            12756          3204           58572          4.3277592e-12
       188   541.61931          75899   361            371            13088          3277           58802          4.421005e-12 
       189   549.74562          76478   361            371            13349          3362           59035          4.5213936e-12
       190   558.15991          77082   359            370            13697          3426           59230          4.6301588e-12
       191   566.5239           77731   358            370            14051          3510           59442          4.7502473e-12
       192   575.04686          78428   357            368            14449          3597           59657          4.8815256e-12
       193   583.68049          79146   355            366            14877          3676           59872          5.0220108e-12
       194   592.40242          79849   355            366            15309          3751           60068          5.1691367e-12
       195   601.27228          80624   354            365            15774          3855           60276          5.324064e-12 
       196   610.2832           81374   354            363            16245          3928           60484          5.4770252e-12
       197   619.48593          82149   351            360            16745          4005           60688          5.6318812e-12
       198   628.76055          82903   349            360            17233          4078           60883          5.7887613e-12
       199   638.16881          83674   349            360            17699          4187           61079          5.9519631e-12
       200   647.91935          84495   348            360            18213          4288           61286          6.1183693e-12
       201   657.62557          85273   343            359            18703          4392           61476          6.2885814e-12
       202   667.48351          86140   343            355            19285          4504           61653          6.4700657e-12
       203   677.41913          87044   338            353            19878          4628           61847          6.6595145e-12
       204   687.49038          87905   336            350            20453          4733           62033          6.8512411e-12
       205   697.65653          88793   335            347            21063          4853           62195          7.0547511e-12
       206   707.95996          89750   334            347            21714          4962           62393          7.257651e-12 
       207   718.41582          90715   331            343            22388          5085           62568          7.4860344e-12
       208   728.97667          91663   328            341            23054          5204           62736          7.7110228e-12
       209   739.5773           92646   322            337            23772          5319           62896          7.9317681e-12
       210   750.52848          93636   315            334            24488          5448           63051          8.1673771e-12
       211   761.36729          94661   313            330            25223          5579           63216          8.4049421e-12
       212   772.24629          95650   312            328            25921          5729           63360          8.6294908e-12
       213   783.20143          96634   305            324            26608          5898           63499          8.8511047e-12
       214   794.22021          97685   303            321            27371          6058           63632          9.0789735e-12
       215   805.29855          98739   300            318            28117          6238           63766          9.3234254e-12
       216   816.41247          99768   296            311            28848          6404           63909          9.5588739e-12
       217   827.63679         100744   291            304            29511          6626           64012          9.7762437e-12
       218   838.89371         101780   288            296            30257          6829           64110          9.9985798e-12
       219   850.12808         102746   286            289            30880          7070           64221          1.0205127e-11
       220   861.64011         103754   283            285            31585          7288           64313          1.0413733e-11
       221   872.94894         104702   276            282            32206          7544           64394          1.0607566e-11
       222   884.30105         105666   271            274            32858          7784           64479          1.081418e-11 
       223   895.71463         106606   264            267            33503          8011           64561          1.1009863e-11
       224   907.17182         107587   258            255            34148          8295           64631          1.1192714e-11
       225   918.65053         108506   247            244            34760          8579           64676          1.1368869e-11
       226   930.195           109406   239            232            35312          8888           64735          1.1514671e-11
       227   941.74909         110241   232            224            35791          9210           64784          1.1670156e-11
       228   953.34476         110954   220            214            36177          9515           64828          1.1788015e-11
       229   964.96937         111786   211            200            36669          9837           64869          1.1930428e-11
       230   976.89734         112594   196            192            37133          10179          64894          1.2040334e-11
       231   988.60509         113301   187            181            37486          10520          64927          1.2132425e-11
       232   1000.4139         114039   183            172            37871          10842          64971          1.2203479e-11
       233   1012.2422         114640   171            159            38103          11211          64996          1.2291671e-11
       234   1024.107          115195   163            148            38275          11587          65022          1.2332779e-11
       235   1036.0166         115826   152            133            38518          11986          65037          1.2371512e-11
       236   1047.9409         116383   143            119            38671          12394          65056          1.2384607e-11
       237   1059.9175         117004   129            112            38914          12763          65086          1.2429448e-11
       238   1071.9209         117554   118            101            39058          13168          65109          1.2437762e-11
       239   1083.9506         117988   114            93             39096          13557          65128          1.2447187e-11
       240   1096.2787         118433   110            88             39165          13918          65152          1.2447146e-11
       241   1108.4249         118985   101            79             39312          14323          65170          1.2440215e-11
       242   1120.6405         119501   93             75             39481          14671          65181          1.2443436e-11
       243   1132.8069         119972   90             71             39602          15005          65204          1.2435288e-11
       244   1144.9969         120374   85             63             39624          15377          65225          1.2427403e-11
       245   1157.2229         120873   80             58             39758          15728          65249          1.2454401e-11
       246   1169.4664         121310   75             51             39876          16039          65269          1.2432942e-11
       247   1181.7496         121706   64             43             39934          16379          65286          1.2415592e-11
       248   1194.0408         122187   61             39             40112          16678          65297          1.2403959e-11
       249   1206.3749         122589   54             35             40155          17032          65313          1.2380224e-11
       250   1219.1229         123045   46             32             40280          17364          65323          1.2391562e-11
       251   1231.471          123429   44             30             40348          17670          65337          1.2371885e-11
       252   1243.883          123856   43             29             40456          17967          65361          1.2357489e-11
       253   1256.3633         124349   35             28             40619          18296          65371          1.2366776e-11
       254   1268.9376         124759   34             26             40690          18623          65386          1.2339733e-11
       255   1281.5808         125150   31             25             40755          18943          65396          1.2346208e-11
       256   1294.2286         125528   29             23             40791          19268          65417          1.2343327e-11
       257   1306.8841         125982   27             22             40908          19595          65430          1.2335515e-11
       258   1319.5606         126372   27             21             40942          19941          65441          1.233606e-11 
       259   1332.2822         126768   26             19             41010          20255          65458          1.2304978e-11
       260   1345.3535         127186   23             19             41090          20582          65472          1.2287859e-11
       261   1358.2307         127576   23             19             41088          20958          65488          1.2309897e-11
       262   1371.123          127963   23             19             41125          21295          65501          1.2293056e-11
       263   1383.9832         128306   22             19             41125          21623          65517          1.2292095e-11
       264   1396.9066         128727   22             18             41195          21961          65531          1.2290282e-11
       265   1409.9133         129092   22             18             41199          22305          65548          1.227943e-11 
       266   1422.9545         129513   22             18             41306          22602          65565          1.2255339e-11
       267   1436.0332         129854   22             18             41287          22944          65583          1.2245588e-11
       268   1449.1269         130224   22             18             41288          23295          65601          1.2250365e-11
       269   1462.2787         130541   22             18             41243          23644          65614          1.2238235e-11
       270   1475.8349         131002   22             18             41358          23969          65635          1.2250929e-11
       271   1489.1159         131426   21             18             41394          24344          65649          1.2244739e-11
       272   1502.4386         131754   20             18             41347          24703          65666          1.2233146e-11
       273   1515.7584         132057   20             18             41234          25103          65682          1.2210249e-11
       274   1529.1587         132456   20             17             41223          25494          65702          1.2220855e-11
       275   1542.6251         132810   20             17             41171          25888          65714          1.2230142e-11
       276   1556.1598         133159   20             17             41108          26278          65736          1.2207851e-11
       277   1569.7382         133525   20             17             41026          26712          65750          1.2224033e-11
       278   1583.3235         133865   20             17             40925          27130          65773          1.2202398e-11
       279   1596.9917         134282   19             17             40889          27570          65787          1.2214732e-11
       280   1610.9752         134611   19             17             40786          27983          65806          1.2192409e-11
       281   1624.6405         134939   19             17             40640          28440          65823          1.2197751e-11
       282   1638.3947         135336   19             17             40575          28882          65843          1.2214231e-11
       283   1652.1922         135682   19             17             40451          29336          65859          1.2204275e-11
       284   1666.031          135998   19             17             40239          29846          65877          1.2193221e-11
       285   1680.0005         136519   18             17             40270          30319          65895          1.223232e-11 
       286   1694.0028         136745   18             17             40006          30793          65911          1.2195942e-11
       287   1708.007          137130   18             17             39878          31286          65931          1.2212204e-11
       288   1722.0383         137438   18             17             39679          31779          65945          1.2224608e-11
       289   1736.0206         137788   18             17             39504          32281          65968          1.2231548e-11
       290   1750.4048         138195   18             17             39402          32775          65983          1.2240866e-11
       291   1764.5684         138487   18             17             39155          33293          66004          1.2238532e-11
       292   1778.7478         138884   17             17             39020          33809          66021          1.2251006e-11
       293   1792.8433         139197   17             17             38763          34360          66040          1.2262356e-11
       294   1807.1111         139498   17             17             38567          34841          66056          1.2271683e-11
       295   1821.4813         139831   17             17             38414          35308          66075          1.2250331e-11
       296   1835.8189         140248   17             17             38353          35767          66094          1.2257438e-11
       297   1850.0093         140564   17             17             38174          36244          66112          1.2271583e-11
       298   1864.3423         140877   17             17             37966          36745          66132          1.2277402e-11
       299   1878.8132         141190   17             17             37801          37207          66148          1.2278166e-11
       300   1893.5876         141559   17             17             37674          37681          66170          1.2310975e-11
       301   1908.1071         141925   17             17             37565          38140          66186          1.2293295e-11
       302   1922.5948         142213   17             17             37361          38614          66204          1.231645e-11 
       303   1937.2463         142500   17             16             37185          39062          66220          1.2317979e-11
       304   1951.8474         142891   17             16             37138          39481          66239          1.2335958e-11
       305   1966.6065         143119   17             16             36951          39878          66257          1.2314549e-11
       306   1981.2319         143454   17             16             36859          40287          66275          1.2320889e-11
       307   1995.9479         143858   17             16             36853          40679          66293          1.2344621e-11
       308   2010.7781         144161   17             16             36726          41093          66309          1.2354677e-11
       309   2025.636          144481   17             16             36638          41480          66330          1.2368455e-11
       310   2040.7922         144855   17             16             36629          41846          66347          1.2378747e-11
       311   2055.6373         145176   17             16             36577          42199          66367          1.2401206e-11
       312   2070.6053         145465   17             16             36496          42554          66382          1.2401923e-11
       313   2085.5671         145822   17             16             36483          42906          66400          1.2402453e-11
       314   2100.5412         146125   17             16             36432          43243          66417          1.2422437e-11
       315   2115.5544         146471   17             16             36408          43592          66438          1.2449392e-11
       316   2130.5933         146777   17             16             36352          43940          66452          1.2447554e-11
       317   2145.7376         147088   17             16             36295          44284          66476          1.2457072e-11
       318   2160.8932         147409   17             16             36255          44633          66488          1.2465224e-11
       319   2176.1352         147818   17             16             36326          44946          66513          1.2489066e-11
       320   2191.7365         148051   17             16             36186          45304          66528          1.2491717e-11
Loop time of 2191.74 on 16 procs for 320 steps with 148051 atoms

98.3% CPU use with 16 MPI tasks x 1 OpenMP threads

MPI task timing breakdown:
Section |  min time  |  avg time  |  max time  |%varavg| %total
---------------------------------------------------------------
Pair    | 503.96     | 591.79     | 765.26     | 306.1 | 27.00
Neigh   | 435.08     | 537.57     | 754.54     | 417.2 | 24.53
Comm    | 214.01     | 233.8      | 263.81     |  88.4 | 10.67
Output  | 17.022     | 17.022     | 17.023     |   0.0 |  0.78
Modify  | 405.48     | 800.1      | 1000.3     | 616.7 | 36.51
Other   |            | 11.45      |            |       |  0.52

Nlocal:        9253.19 ave       13482 max        7573 min
Histogram: 7 2 0 4 0 0 0 1 1 1
Nghost:        7127.75 ave        8634 max        6101 min
Histogram: 4 1 3 0 1 2 1 2 0 2
Neighs:        86347.6 ave       98600 max       78136 min
Histogram: 2 3 1 2 2 0 4 1 0 1

Total # of neighbors = 1381562
Ave neighs/atom = 9.3316627
Neighbor list builds = 28253
Dangerous builds = 27933

Total wall time: 0:37:11
