LAMMPS (23 Jun 2022 - Update 4)
  using 1 OpenMP thread(s) per MPI task
package omp 0
using multi-threaded neighbor list subroutines
#-----------------------------------------------------------------------------#
#                NUFEB Simulation: Heterotrophic Biofilm Growth               #
#-----------------------------------------------------------------------------#


#-----------------------------System Settings---------------------------------#

units si                                    # using si units (m, s, kg)
atom_style      coccus                      # using nufeb coccus atom style
atom_modify     map array sort 10 0         # map array - find atoms using indices
		                            # sort every 10

boundary        pp pp ff                    # periodic boundaries in x and y
                                            # fixed boundary in z

newton          off                         # forces between local and ghost
                                            # atoms are computed in each
					     # processor without communication

processors      * * 1                       # processor grid

comm_modify     vel yes                     # communicate velocities for ghost atoms

read_data       atom_ch.in	             # read atom.in file which defines domain size
Reading data file ...
  orthogonal box = (0 0 0) to (6e-05 6e-05 6e-05)
  4 by 4 by 1 MPI processor grid
  reading atoms ...
  150 atoms
  read_data CPU = 0.011 seconds
                                            # and initial atoms


#--------------------Microbes and Functional Groups-------------------------#

group           CROSS1   type 1               # assign type 1,2 atoms to CROSS group
50 atoms in group CROSS1
group           CROSS2   type 2
50 atoms in group CROSS2
group		CHEATER  type 3
50 atoms in group CHEATER
group           dead     type 4
0 atoms in group dead
group		EPS	 type 5
0 atoms in group EPS

neighbor        5e-7 bin                   # setting neighbour skin distance and style

neigh_modify    check yes                  # rebuild neighbour list if any atom
                                           # had moved more than half the skin distance


#--------------------------Mesh Grid and Substrates--------------------------#

# defining grid sytle, substrate names, and grid size
grid_style      nufeb/chemostat 3 sub metab1 metab2 5e-6

# set diffusion boundary conditions and initial concentrations (liquid:kg/m3)
grid_modify     set sub      pp pp nd  1.8e-4
No /omp style for force computation currently active
grid_modify     set metab1   pp pp nd  1e-4
No /omp style for force computation currently active
grid_modify     set metab2   pp pp nd  1e-4
No /omp style for force computation currently active


#--------------------------Biological Processes-------------------------------#

# heterotrophs growth
fix growth_cross1 CROSS1 nufeb/growth/cross1 sub 3.5e-5 metab2 4e-3 metab1 growth 0.009 yield 0.6 decay 2.6e-6 metab1_exp 20 epsyield 0.12 epsdens 30

fix growth_cross2 CROSS2 nufeb/growth/cross2 sub 3.5e-5 metab1 4e-3 metab2 growth 0.009 yield 0.6 decay 2.6e-6 metab2_exp 20 epsyield 0.12 epsdens 30

fix growth_cheater CHEATER nufeb/growth/cheater sub 3.5e-5 metab1 1e-3 metab2 1e-3 growth 0.009 yield 0.6 decay 2.6e-6

# heterotrophs division, division diameter: 1.36e-6
fix div1 CROSS1 nufeb/division/coccus 1.36e-6 139
fix div2 CROSS2 nufeb/division/coccus 1.36e-6 250
fix div3 CHEATER nufeb/division/coccus 1.36e-6 433

fix death1 CROSS1 nufeb/death/diameter dead 5.43e-7
fix death2 CROSS2 nufeb/death/diameter dead 5.43e-7
fix death3 CHEATER nufeb/death/diameter dead 5.43e-7

# EPS secretion from heterotrophs
fix eps1 CROSS1 nufeb/eps_secretion 5 EPS 1.1 30 688
fix eps2 CROSS2 nufeb/eps_secretion 5 EPS 1.1 30 1015

#---------------------------Physical Processes--------------------------------#

pair_style  gran/hooke/history 1e-4 NULL 1e-5 NULL 0.0 0    # pairwise interaction
pair_coeff  * *                                             # between atoms

# pairwise interaction between z-wall and atoms
fix wall all wall/gran hooke/history 1e-3 NULL 1e-4 NULL 0 0 zplane 0.0 1e-04

fix vis all viscous 1e-5                                    # viscous damping force

fix grav all gravity 9.81 vector 0.0 0.0 -1.0

fix nve all nve/limit 1e-7                                  # NVE integration with
                                                            # maximum distance limit


#---------------------------Post-Physical Processes---------------------------#

fix coeff_sub all nufeb/diffusion_coeff sub ratio 0.8       # defining diffusion coeff in the biofilm
fix coeff_metab1 all nufeb/diffusion_coeff metab1 ratio 0.8    # region is 80% of the value in liquid
fix coeff_metab2 all nufeb/diffusion_coeff metab2 ratio 0.8

#---------------------------Chemical Processes---------------------------------#

fix diff_sub all nufeb/diffusion_reaction sub 1e-9        # diffusion reaction for updating
fix diff_metab1 all nufeb/diffusion_reaction metab1 4e-9     # distribusion of substrate concentration
fix diff_metab2 all nufeb/diffusion_reaction metab2 4e-9

#--------------------------Computations and Outputs----------------------------#

variable mass equal "mass(all)"                             # total mass
variable ncross1 equal "count(CROSS1)"                      # total # of CROSS1
variable ncross2 equal "count(CROSS2)"                      # total # of CROSS2
variable ncheater equal "count(CHEATER)"
variable ndead equal "count(dead)"
variable neps equal "count(EPS)"

shell mkdir vtk_EPS_ch                                            # dump vtk files to /vtk folder
dump du1 all vtk 10 vtk_EPS_ch/dump*.vtu id type diameter         # require build NUFEB with vtk option
dump du2 all grid/vtk 10 vtk_EPS_ch/dump_%_*.vti con rea den gro

#dump du3 all movie 10 movie.avi type diameter view 80 60    # dump video
#dump_modify du3 acolor 1 blue acolor 2 lightgrey framerate 10


                                                            # dump hdf5 files to /hdf5 folder
#shell mkdir hdf5                                           # require build NUFEB with hdf5 option
#dump du3 all nufeb/hdf5 10 dump.h5 id type x y z vx vy vz fx fy fz radius conc reac

thermo_style custom step cpu atoms v_ncross1 v_ncross2 v_ncheater v_ndead v_neps v_mass     # screen and log outputs
thermo 1
thermo_modify   lost ignore

#-----------------------------------Run----------------------------------------#

# issue run command, define timesteps for physical (pairdt) and chemical (diffdt) processes
run_style nufeb diffdt 1e-4 difftol 1e-6 pairdt 1e-2 pairtol 1 pairmax 1000 diffmax 5000

timestep 12000                                               # define biological timesteps (1000s)

run 320                                                    # growing biofilm for 900x1000s
Generated 0 of 6 mixed pair_coeff terms from geometric mixing rule
Last active /omp style is pair_style gran/hooke/history/omp
Neighbor list info ...
  update every 1 steps, delay 10 steps, check yes
  max neighbors/atom: 2000, page size: 100000
  master list distance cutoff = 2.49e-06
  ghost atom cutoff = 2.49e-06
  binsize = 1.245e-06, bins = 49 49 49
  1 neighbor lists, perpetual/occasional/extra = 1 0 0
  (1) pair gran/hooke/history/omp, perpetual
      attributes: half, newton off, size, history, omp
      pair build: half/size/bin/newtoff/omp
      stencil: full/bin/3d
      bin: standard
Per MPI rank memory allocation (min/avg/max) = 11.02 | 11.02 | 11.02 Mbytes
   Step          CPU          Atoms      v_ncross1      v_ncross2      v_ncheater      v_ndead         v_neps         v_mass    
         0   0                    150   50             50             50             0              0              1.3295396e-13
         1   0.38539873           432   90             85             86             0              171            1.7275594e-13
         2   0.77067591           796   120            125            138            0              413            1.9584525e-13
         3   1.1006882           1117   129            143            184            0              661            2.1505098e-13
         4   1.4025946           1437   137            152            209            0              939            2.3309947e-13
         5   1.61561             1750   142            159            224            0              1225           2.5048187e-13
         6   1.7884674           2064   146            165            240            0              1513           2.6771387e-13
         7   1.9638333           2405   155            175            254            0              1821           2.8474405e-13
         8   2.1211891           2761   163            183            279            0              2136           3.0128502e-13
         9   2.2543257           3105   165            190            293            0              2457           3.1753737e-13
        10   7.6217185           3461   167            198            318            0              2778           3.3332577e-13
        11   7.7527725           3831   173            210            332            0              3116           3.4836908e-13
        12   7.8496324           4218   181            220            348            0              3469           3.6286732e-13
        13   7.9568567           4597   188            223            366            0              3820           3.7719168e-13
        14   8.0707083           5003   197            230            384            0              4192           3.9138752e-13
        15   8.1804245           5396   204            234            405            0              4553           4.0522361e-13
        16   8.301802            5792   207            241            418            0              4926           4.1863927e-13
        17   8.3984025           6193   212            246            434            0              5301           4.3159424e-13
        18   8.4941579           6597   218            250            453            0              5676           4.441751e-13 
        19   8.5911839           6987   226            255            467            0              6039           4.5619127e-13
        20   8.7461166           7387   229            258            475            0              6425           4.6774485e-13
        21   8.8266745           7785   233            262            483            0              6807           4.7879045e-13
        22   8.9142236           8182   233            269            500            0              7180           4.8925539e-13
        23   9.0065769           8597   236            273            521            0              7567           4.9961778e-13
        24   9.1009808           8990   241            276            533            0              7940           5.0937861e-13
        25   9.2271463           9394   243            279            544            0              8328           5.1907605e-13
        26   9.369316            9780   249            283            565            0              8683           5.2855802e-13
        27   9.497973           10169   251            284            574            0              9060           5.3783189e-13
        28   9.6681333          10582   254            289            590            0              9449           5.4741451e-13
        29   9.7814426          10975   259            291            599            0              9826           5.56513e-13  
        30   9.9644821          11368   264            294            611            0              10199          5.6570366e-13
        31   10.139747          11774   270            295            625            0              10584          5.7489891e-13
        32   10.284364          12170   271            299            638            0              10962          5.8383018e-13
        33   10.426679          12574   279            302            654            0              11339          5.9287648e-13
        34   10.589101          12980   282            304            672            0              11722          6.0192641e-13
        35   10.788937          13380   285            308            685            0              12102          6.1132088e-13
        36   11.008114          13778   286            311            701            0              12480          6.2052468e-13
        37   11.230434          14173   290            312            717            0              12854          6.2962975e-13
        38   11.485825          14575   294            315            738            0              13228          6.3857846e-13
        39   11.81675           14993   297            317            759            0              13620          6.4735965e-13
        40   12.445943          15398   298            318            777            0              14005          6.5600716e-13
        41   12.806589          15801   303            320            798            0              14380          6.6411421e-13
        42   13.644118          16206   304            320            811            0              14771          6.7220955e-13
        43   14.202367          16617   309            321            826            0              15161          6.8034106e-13
        44   14.815793          17010   310            322            843            0              15535          6.8825322e-13
        45   15.83033           17418   315            323            860            0              15920          6.9661892e-13
        46   16.856255          17815   318            326            876            0              16295          7.0517765e-13
        47   17.946512          18228   320            327            895            0              16686          7.1442324e-13
        48   19.028525          18618   320            330            915            0              17053          7.2422705e-13
        49   20.170399          19037   323            330            945            0              17439          7.344678e-13 
        50   21.370884          19433   324            331            965            0              17813          7.4538983e-13
        51   22.519335          19843   326            332            995            0              18190          7.5684333e-13
        52   23.664792          20244   328            332            1022           0              18562          7.6865528e-13
        53   24.821149          20653   330            333            1062           0              18928          7.8050837e-13
        54   25.971134          21071   331            334            1098           1              19307          7.9249081e-13
        55   27.130955          21464   331            335            1118           1              19679          8.0423303e-13
        56   28.284867          21872   332            336            1155           2              20047          8.1587599e-13
        57   29.446657          22279   335            336            1183           2              20423          8.272091e-13 
        58   30.63466           22662   336            336            1214           3              20773          8.3816784e-13
        59   31.888999          23071   338            336            1239           3              21155          8.4896554e-13
        60   53.290107          23460   338            338            1270           4              21510          8.5993954e-13
        61   54.629656          23859   338            338            1300           6              21877          8.7091755e-13
        62   56.048367          24269   339            338            1334           8              22250          8.8249644e-13
        63   57.495947          24657   340            340            1369           9              22599          8.9424834e-13
        64   58.952795          25073   341            341            1415           11             22965          9.0684964e-13
        65   60.444405          25450   342            341            1450           12             23305          9.1972275e-13
        66   61.922983          25857   343            341            1487           17             23669          9.3310796e-13
        67   63.411339          26250   343            342            1518           21             24026          9.4646993e-13
        68   64.89285           26630   345            342            1548           28             24367          9.5978542e-13
        69   66.396269          27025   347            344            1579           35             24720          9.730712e-13 
        70   67.991182          27424   347            345            1615           38             25079          9.8629564e-13
        71   69.522049          27809   349            347            1637           52             25424          9.9909298e-13
        72   71.082238          28225   349            347            1682           58             25789          1.0118404e-12
        73   72.784834          28623   350            348            1710           68             26147          1.0243235e-12
        74   74.459883          29004   350            349            1737           78             26490          1.03786e-12  
        75   76.243251          29397   350            349            1770           89             26839          1.051311e-12 
        76   78.08638           29775   351            350            1806           100            27168          1.0656202e-12
        77   79.97921           30198   351            350            1858           110            27529          1.0815908e-12
        78   81.899526          30580   351            350            1900           122            27857          1.0989408e-12
        79   83.844289          30977   351            350            1946           135            28195          1.1175909e-12
        80   85.863527          31363   352            351            1996           146            28518          1.1371195e-12
        81   87.866685          31766   353            352            2059           157            28845          1.1569354e-12
        82   89.829884          32176   353            352            2119           169            29183          1.1775299e-12
        83   91.815744          32559   354            352            2169           182            29502          1.1977553e-12
        84   93.802706          32967   354            352            2244           191            29826          1.2180672e-12
        85   95.837224          33364   355            352            2306           200            30151          1.2379538e-12
        86   97.893047          33751   356            352            2370           210            30463          1.257765e-12 
        87   99.977991          34160   357            353            2438           225            30787          1.2774461e-12
        88   102.18116          34545   357            353            2498           235            31102          1.2970889e-12
        89   104.39035          34944   357            353            2562           250            31422          1.3178333e-12
        90   106.7718           35321   358            353            2627           257            31726          1.3385776e-12
        91   109.09207          35728   359            353            2711           261            32044          1.3598918e-12
        92   111.42916          36118   360            353            2789           269            32347          1.3813657e-12
        93   113.83076          36514   360            353            2862           278            32661          1.4031752e-12
        94   116.24196          36923   360            353            2934           289            32987          1.4253895e-12
        95   118.70198          37294   360            353            3007           306            33268          1.4472697e-12
        96   121.16985          37709   360            353            3087           317            33592          1.4695305e-12
        97   123.679            38074   360            353            3147           327            33887          1.4913443e-12
        98   126.27147          38473   360            353            3228           337            34195          1.5130866e-12
        99   128.90258          38864   360            353            3300           345            34506          1.5351626e-12
       100   131.68164          39237   360            353            3376           352            34796          1.5578302e-12
       101   134.39383          39619   360            353            3456           355            35095          1.5820536e-12
       102   137.15372          40034   360            354            3551           365            35404          1.6071221e-12
       103   139.9436           40408   360            354            3639           372            35683          1.6334894e-12
       104   142.77789          40792   360            354            3720           386            35972          1.6607602e-12
       105   145.67032          41209   360            354            3825           392            36278          1.6890238e-12
       106   148.59431          41574   360            354            3912           406            36542          1.7174438e-12
       107   151.56768          41968   360            354            4017           412            36825          1.7463571e-12
       108   154.60723          42375   360            354            4124           424            37113          1.7750147e-12
       109   157.66963          42753   361            354            4217           438            37383          1.8035315e-12
       110   160.89353          43158   361            354            4330           450            37663          1.8315066e-12
       111   164.06504          43561   361            354            4442           465            37939          1.8601436e-12
       112   167.30189          43992   361            354            4567           475            38235          1.8890498e-12
       113   170.69098          44358   361            354            4675           483            38485          1.9189613e-12
       114   174.0406           44771   361            354            4797           496            38763          1.9498357e-12
       115   177.43299          45180   361            354            4919           512            39034          1.9818494e-12
       116   180.87565          45559   361            354            5029           529            39286          2.014449e-12 
       117   184.37326          45987   361            354            5142           553            39577          2.0474887e-12
       118   187.92037          46373   361            354            5258           574            39826          2.080336e-12 
       119   191.51397          46789   361            354            5363           598            40113          2.1130382e-12
       120   195.30822          47189   361            354            5471           631            40372          2.1451663e-12
       121   198.99253          47594   361            354            5591           668            40620          2.1777974e-12
       122   202.74335          47999   361            354            5688           698            40898          2.2101658e-12
       123   206.56299          48414   362            354            5801           732            41165          2.2433955e-12
       124   210.39746          48797   362            354            5902           773            41406          2.2767227e-12
       125   214.30832          49229   362            354            6003           814            41696          2.3110482e-12
       126   218.29315          49649   362            354            6124           865            41944          2.3458331e-12
       127   222.35494          50071   362            354            6225           917            42213          2.3813644e-12
       128   226.47533          50491   362            354            6324           963            42488          2.4181058e-12
       129   230.65064          50888   362            354            6418           1014           42740          2.4558168e-12
       130   235.0561           51326   362            354            6538           1059           43013          2.4935327e-12
       131   239.3812           51743   362            354            6666           1090           43271          2.5326165e-12
       132   243.78126          52166   362            354            6796           1127           43527          2.5725193e-12
       133   248.2385           52607   361            354            6937           1179           43776          2.6132749e-12
       134   252.77155          53030   361            354            7061           1223           44031          2.6553706e-12
       135   257.37959          53487   361            354            7191           1271           44310          2.6993673e-12
       136   262.05543          53939   361            354            7350           1320           44554          2.7453539e-12
       137   266.81173          54365   361            354            7470           1378           44802          2.7929553e-12
       138   271.6591           54850   360            354            7648           1423           45065          2.8419508e-12
       139   276.58998          55295   360            354            7808           1465           45308          2.8920295e-12
       140   281.74432          55754   360            354            7973           1507           45560          2.9426615e-12
       141   286.82589          56210   360            354            8123           1555           45818          2.9947981e-12
       142   291.9977           56668   360            354            8306           1596           46052          3.0477899e-12
       143   297.26303          57160   360            354            8499           1647           46300          3.1025109e-12
       144   302.62933          57642   360            354            8682           1689           46557          3.1606781e-12
       145   308.11234          58162   360            354            8920           1735           46793          3.221074e-12 
       146   313.64744          58704   360            354            9159           1775           47056          3.2845552e-12
       147   319.29735          59181   360            354            9369           1813           47285          3.3502772e-12
       148   325.0507           59700   360            354            9586           1863           47537          3.4184126e-12
       149   330.92241          60201   360            354            9787           1923           47777          3.4896225e-12
       150   337.03718          60749   360            354            10052          1958           48025          3.5640231e-12
       151   343.12551          61302   360            354            10306          2018           48264          3.6414733e-12
       152   349.36048          61861   360            354            10567          2074           48506          3.7216092e-12
       153   355.7398           62455   360            354            10843          2130           48768          3.808639e-12 
       154   362.21457          63048   358            353            11143          2194           49000          3.9021198e-12
       155   368.83839          63675   358            353            11470          2249           49245          4.0046573e-12
       156   375.60063          64319   358            353            11805          2316           49487          4.1176668e-12
       157   382.44782          64963   358            353            12167          2371           49714          4.2408239e-12
       158   389.42881          65652   358            353            12556          2427           49958          4.3727655e-12
       159   396.57769          66384   358            353            12978          2491           50204          4.5120818e-12
       160   404.07189          67097   358            353            13377          2560           50449          4.6497836e-12
       161   411.59645          67804   354            352            13773          2646           50679          4.7874917e-12
       162   419.29284          68541   352            352            14166          2737           50934          4.9262263e-12
       163   427.11493          69249   352            352            14553          2836           51156          5.0639111e-12
       164   435.11111          69971   352            352            14955          2929           51383          5.2004688e-12
       165   443.2684           70728   352            352            15374          3023           51627          5.3494628e-12
       166   451.63028          71527   352            352            15857          3099           51867          5.4941412e-12
       167   460.16571          72246   352            352            16279          3183           52080          5.6417423e-12
       168   468.87768          73006   352            351            16711          3272           52320          5.7919611e-12
       169   477.78859          73791   352            351            17160          3359           52569          5.9310165e-12
       170   487.00247          74535   352            351            17613          3441           52778          6.0819177e-12
       171   496.22585          75363   351            351            18129          3531           53001          6.2372147e-12
       172   505.62488          76236   351            351            18644          3644           53246          6.4007602e-12
       173   515.15817          77067   351            350            19171          3738           53457          6.5821423e-12
       174   524.84866          77887   350            350            19712          3825           53650          6.7539145e-12
       175   534.67499          78794   350            350            20288          3934           53872          6.9307879e-12
       176   544.61322          79588   350            348            20789          4032           54069          7.0942157e-12
       177   554.64234          80450   350            348            21356          4113           54283          7.2744347e-12
       178   564.81635          81372   350            348            21982          4217           54475          7.4604186e-12
       179   575.1535           82282   349            348            22606          4310           54669          7.6510662e-12
       180   585.76696          83240   347            346            23248          4426           54873          7.856107e-12 
       181   596.31926          84155   347            346            23905          4519           55038          8.0560465e-12
       182   607.04583          85093   345            345            24535          4651           55217          8.2644754e-12
       183   617.78114          85987   345            344            25115          4799           55384          8.4596939e-12
       184   628.60677          86941   345            342            25763          4938           55553          8.6600491e-12
       185   639.50417          87869   343            342            26428          5061           55695          8.86182e-12  
       186   650.48792          88809   343            341            27080          5203           55842          9.0661431e-12
       187   661.59116          89731   342            339            27685          5380           55985          9.2814553e-12
       188   672.76388          90693   341            339            28311          5571           56131          9.4909425e-12
       189   684.12667          91650   340            339            28928          5786           56257          9.6786258e-12
       190   695.73847          92626   339            336            29557          6008           56386          9.8862701e-12
       191   707.2157           93504   339            330            30094          6269           56472          1.0090998e-11
       192   718.78789          94380   339            329            30609          6533           56570          1.0267385e-11
       193   730.42347          95328   339            324            31158          6825           56682          1.0467348e-11
       194   742.15793          96294   339            320            31738          7115           56782          1.0657652e-11
       195   753.96306          97115   337            318            32181          7409           56870          1.0819713e-11
       196   765.85172          97928   336            316            32663          7660           56953          1.0964487e-11
       197   777.86427          98837   336            310            33223          7944           57024          1.1128095e-11
       198   789.94856          99515   336            306            33529          8239           57105          1.1247411e-11
       199   802.09098         100255   335            301            33927          8523           57169          1.1350858e-11
       200   814.5194          101015   335            297            34388          8775           57220          1.1476125e-11
       201   826.75949         101669   330            292            34718          9043           57286          1.1573381e-11
       202   839.15058         102398   329            286            35162          9284           57337          1.1673202e-11
       203   851.54373         103092   324            284            35574          9512           57398          1.1732085e-11
       204   863.98821         103684   320            281            35915          9722           57446          1.1795677e-11
       205   876.49475         104320   318            276            36313          9909           57504          1.1857285e-11
       206   889.06788         104940   316            269            36706          10099          57550          1.1922345e-11
       207   901.70382         105558   312            263            37100          10287          57596          1.1982655e-11
       208   914.41917         106181   311            255            37478          10500          57637          1.2022174e-11
       209   927.17369         106728   307            245            37804          10698          57674          1.2055875e-11
       210   940.25175         107313   301            238            38131          10927          57716          1.2110417e-11
       211   953.17121         107823   298            231            38360          11167          57767          1.2113197e-11
       212   966.14127         108313   293            221            38515          11483          57801          1.2123661e-11
       213   979.06864         108753   288            214            38655          11760          57836          1.2125465e-11
       214   992.13457         109301   279            207            38864          12082          57869          1.2137787e-11
       215   1005.2668         109801   273            199            39004          12419          57906          1.2162664e-11
       216   1018.4518         110307   270            184            39164          12741          57948          1.2164376e-11
       217   1031.7322         110763   258            170            39230          13111          57994          1.2159398e-11
       218   1045.0899         111284   249            160            39355          13490          58030          1.2188445e-11
       219   1058.4973         111681   243            153            39355          13870          58060          1.2177231e-11
       220   1072.2599         112171   229            142            39488          14223          58089          1.2171947e-11
       221   1085.8059         112594   215            134            39570          14560          58115          1.2182377e-11
       222   1099.4505         113051   210            126            39631          14938          58146          1.2166267e-11
       223   1113.1565         113472   202            116            39677          15291          58186          1.2144704e-11
       224   1126.9706         113925   190            111            39772          15623          58229          1.2153388e-11
       225   1140.9246         114305   178            105            39773          15981          58268          1.2126706e-11
       226   1154.9224         114742   170            95             39857          16322          58298          1.2125542e-11
       227   1168.9511         115198   162            90             39996          16619          58331          1.2119652e-11
       228   1183.0742         115615   160            85             40071          16931          58368          1.211656e-11 
       229   1197.2517         116067   154            80             40212          17223          58398          1.2108602e-11
       230   1211.6943         116461   141            74             40261          17548          58437          1.2113122e-11
       231   1225.9724         116810   127            65             40288          17858          58472          1.2091849e-11
       232   1240.2779         117281   121            60             40446          18150          58504          1.2092083e-11
       233   1254.6933         117678   114            58             40505          18472          58529          1.2080655e-11
       234   1269.1952         118105   112            54             40594          18779          58566          1.2077953e-11
       235   1283.749          118508   105            54             40651          19098          58600          1.2081096e-11
       236   1298.3931         118896   94             52             40711          19397          58642          1.2073806e-11
       237   1313.0217         119260   89             51             40734          19722          58664          1.2059397e-11
       238   1327.7311         119666   79             44             40817          20031          58695          1.2056266e-11
       239   1342.5625         120085   71             39             40894          20363          58718          1.2051669e-11
       240   1357.8118         120508   66             37             40916          20730          58759          1.2054152e-11
       241   1372.7888         120850   63             36             40912          21050          58789          1.2042465e-11
       242   1387.8123         121192   58             34             40915          21377          58808          1.2035645e-11
       243   1402.9027         121586   55             33             40930          21723          58845          1.2036025e-11
       244   1418.0717         122014   53             30             40985          22073          58873          1.203212e-11 
       245   1433.267          122334   48             28             40928          22434          58896          1.2020047e-11
       246   1448.5748         122735   47             26             40937          22797          58928          1.2032337e-11
       247   1463.9178         123083   44             26             40863          23201          58949          1.2021578e-11
       248   1479.3224         123453   41             22             40781          23633          58976          1.1999245e-11
       249   1494.7474         123797   40             21             40694          24043          58999          1.2025725e-11
       250   1510.548          124214   40             21             40662          24470          59021          1.2021041e-11
       251   1526.0864         124572   35             18             40536          24937          59046          1.2013994e-11
       252   1541.6871         124899   34             18             40423          25357          59067          1.2026459e-11
       253   1557.3816         125328   34             18             40336          25849          59091          1.2032441e-11
       254   1573.09           125634   32             18             40158          26314          59112          1.2022453e-11
       255   1588.8643         126048   31             18             40027          26834          59138          1.2054823e-11
       256   1604.7225         126372   30             16             39826          27341          59159          1.2046517e-11
       257   1620.6451         126697   30             16             39665          27805          59181          1.2039435e-11
       258   1636.5974         126990   29             16             39429          28311          59205          1.2022679e-11
       259   1652.5749         127454   29             16             39409          28773          59227          1.2056822e-11
       260   1668.9196         127820   28             16             39265          29263          59248          1.2066781e-11
       261   1685.0643         128152   28             16             39088          29750          59270          1.2059234e-11
       262   1701.1567         128454   28             16             38891          30228          59291          1.2079972e-11
       263   1717.2304         128774   28             16             38722          30693          59315          1.2078909e-11
       264   1733.5202         129184   27             16             38654          31152          59335          1.2084136e-11
       265   1749.7711         129602   27             16             38588          31614          59357          1.2111828e-11
       266   1766.18           129876   27             16             38347          32106          59380          1.2089236e-11
       267   1782.6694         130184   27             16             38176          32565          59400          1.2092464e-11
       268   1799.2701         130462   27             16             37988          33009          59422          1.2077158e-11
       269   1815.8877         130862   27             16             37901          33473          59445          1.2103543e-11
       270   1832.7249         131232   27             16             37797          33926          59466          1.2120562e-11
       271   1849.2913         131501   27             16             37609          34359          59490          1.2134943e-11
       272   1865.9413         131856   27             16             37510          34793          59510          1.2126074e-11
       273   1882.782          132256   25             16             37427          35252          59536          1.2141872e-11
       274   1899.7021         132607   25             16             37336          35676          59554          1.2164139e-11
       275   1916.5027         132948   25             16             37247          36081          59579          1.2176767e-11
       276   1933.3801         133224   25             16             37110          36471          59602          1.2169221e-11
       277   1950.3205         133604   25             16             37068          36875          59620          1.2209479e-11
       278   1967.3771         133944   25             16             37006          37253          59644          1.2213501e-11
       279   1984.6695         134220   25             16             36869          37647          59663          1.2188899e-11
       280   2002.1104         134610   25             16             36848          38035          59686          1.2220647e-11
       281   2019.3772         134941   25             16             36778          38413          59709          1.224536e-11 
       282   2036.7806         135251   25             15             36691          38791          59729          1.2265952e-11
       283   2054.1278         135543   25             15             36589          39161          59753          1.2257486e-11
       284   2071.7569         135822   25             15             36466          39542          59774          1.2239217e-11
       285   2089.1905         136213   25             15             36480          39898          59795          1.2271856e-11
       286   2106.7481         136537   25             15             36409          40273          59815          1.2271058e-11
       287   2124.3879         136937   25             15             36435          40627          59835          1.2319261e-11
       288   2142.0598         137216   25             15             36326          40994          59856          1.2325357e-11
       289   2159.8136         137529   25             15             36290          41323          59876          1.2321678e-11
       290   2177.9114         137942   25             15             36320          41682          59900          1.2356417e-11
       291   2195.8059         138230   25             15             36287          41984          59919          1.2368945e-11
       292   2213.8061         138532   25             15             36241          42307          59944          1.2354728e-11
       293   2231.8291         138877   25             15             36242          42632          59963          1.2387237e-11
       294   2249.9456         139167   25             15             36164          42975          59988          1.2356506e-11
       295   2268.1618         139460   25             15             36087          43326          60007          1.2364957e-11
       296   2286.4102         139753   25             15             35984          43700          60029          1.2360299e-11
       297   2304.6234         140100   25             15             35990          44018          60052          1.2389929e-11
       298   2322.9194         140449   25             15             36024          44315          60070          1.2405398e-11
       299   2341.312          140708   25             15             35950          44624          60094          1.240923e-11 
       300   2360.0576         141087   25             15             36008          44920          60119          1.2442556e-11
       301   2378.5629         141380   25             15             35976          45225          60139          1.2437495e-11
       302   2397.195          141728   25             15             35959          45568          60161          1.2438567e-11
       303   2415.8585         142032   25             15             35908          45903          60181          1.2443578e-11
       304   2434.6382         142345   25             15             35848          46254          60203          1.2462089e-11
       305   2453.4111         142711   25             15             35903          46544          60224          1.2483265e-11
       306   2472.235          142955   25             15             35796          46874          60245          1.2495209e-11
       307   2491.1223         143335   25             15             35846          47182          60267          1.2498302e-11
       308   2510.0816         143674   25             15             35857          47490          60287          1.2510584e-11
       309   2529.074          144013   25             15             35885          47779          60309          1.2526621e-11
       310   2548.4784         144243   25             15             35796          48075          60332          1.252199e-11 
       311   2567.6225         144511   25             15             35739          48378          60354          1.2530437e-11
       312   2586.8359         144929   25             15             35800          48712          60377          1.2556029e-11
       313   2606.1288         145265   25             15             35813          49015          60397          1.2561556e-11
       314   2625.5208         145621   25             15             35830          49331          60420          1.2595101e-11
       315   2644.9734         145860   25             15             35728          49650          60442          1.2578084e-11
       316   2664.4865         146189   25             15             35730          49955          60464          1.2601253e-11
       317   2684.0828         146516   25             15             35713          50277          60486          1.2626535e-11
       318   2703.7166         146871   25             15             35730          50593          60508          1.2631894e-11
       319   2723.4049         147267   25             15             35808          50888          60531          1.2645806e-11
       320   2743.4862         147523   25             15             35733          51197          60553          1.265067e-11 
Loop time of 2743.49 on 16 procs for 320 steps with 147523 atoms

97.6% CPU use with 16 MPI tasks x 1 OpenMP threads

MPI task timing breakdown:
Section |  min time  |  avg time  |  max time  |%varavg| %total
---------------------------------------------------------------
Pair    | 746.29     | 850.03     | 1035.7     | 293.4 | 30.98
Neigh   | 447.51     | 547.61     | 754.67     | 486.9 | 19.96
Comm    | 318.32     | 387.01     | 461.68     | 260.7 | 14.11
Output  | 31.354     | 31.354     | 31.356     |   0.0 |  1.14
Modify  | 447.13     | 913.59     | 1161.5     | 763.5 | 33.30
Other   |            | 13.89      |            |       |  0.51

Nlocal:        9220.19 ave       12151 max        7786 min
Histogram: 5 6 1 0 0 0 0 0 0 4
Nghost:        7227.75 ave        9477 max        5981 min
Histogram: 4 3 5 0 0 0 0 0 0 4
Neighs:        89917.1 ave      101085 max       82386 min
Histogram: 2 3 3 2 2 0 0 0 3 1

Total # of neighbors = 1438674
Ave neighs/atom = 9.7522014
Neighbor list builds = 28063
Dangerous builds = 27743

Total wall time: 0:46:06
