LAMMPS (23 Jun 2022 - Update 4)
  using 1 OpenMP thread(s) per MPI task
package omp 0
using multi-threaded neighbor list subroutines
#-----------------------------------------------------------------------------#
#                NUFEB Simulation: Heterotrophic Biofilm Growth               #
#-----------------------------------------------------------------------------#


#-----------------------------System Settings---------------------------------#

units si                                    # using si units (m, s, kg)
atom_style      coccus                      # using nufeb coccus atom style
atom_modify     map array sort 10 0         # map array - find atoms using indices
		                            # sort every 10

boundary        pp pp ff                    # periodic boundaries in x and y
                                            # fixed boundary in z

newton          off                         # forces between local and ghost
                                            # atoms are computed in each
					     # processor without communication

processors      * * 1                       # processor grid

comm_modify     vel yes                     # communicate velocities for ghost atoms

read_data       atom_ch.in	             # read atom.in file which defines domain size
Reading data file ...
  orthogonal box = (0 0 0) to (6e-05 6e-05 6e-05)
  4 by 4 by 1 MPI processor grid
  reading atoms ...
  150 atoms
  read_data CPU = 0.019 seconds
                                            # and initial atoms


#--------------------Microbes and Functional Groups-------------------------#

group           CROSS1   type 1               # assign type 1,2 atoms to CROSS group
50 atoms in group CROSS1
group           CROSS2   type 2
50 atoms in group CROSS2
group		CHEATER  type 3
50 atoms in group CHEATER
group           dead     type 4
0 atoms in group dead

neighbor        5e-7 bin                   # setting neighbour skin distance and style

neigh_modify    check yes                  # rebuild neighbour list if any atom
                                           # had moved more than half the skin distance


#--------------------------Mesh Grid and Substrates--------------------------#

# defining grid sytle, substrate names, and grid size
grid_style      nufeb/chemostat 3 sub metab1 metab2 5e-6

# set diffusion boundary conditions and initial concentrations (liquid:kg/m3)
grid_modify     set sub      pp pp nd  1.8e-4
No /omp style for force computation currently active
grid_modify     set metab1   pp pp nd  1e-4
No /omp style for force computation currently active
grid_modify     set metab2   pp pp nd  1e-4
No /omp style for force computation currently active


#--------------------------Biological Processes-------------------------------#

# heterotrophs growth
fix growth_cross1 CROSS1 nufeb/growth/cross1 sub 3.5e-5 metab2 4e-3 metab1 growth 0.009 yield 0.6 decay 2.6e-6 metab1_exp 20

fix growth_cross2 CROSS2 nufeb/growth/cross2 sub 3.5e-5 metab1 4e-3 metab2 growth 0.009 yield 0.6 decay 2.6e-6 metab2_exp 20

fix growth_cheater CHEATER nufeb/growth/cheater sub 3.5e-5 metab1 1e-3 metab2 1e-3 growth 0.009 yield 0.6 decay 2.6e-6
# heterotrophs division, division diameter: 1.36e-6
fix div1 CROSS1 nufeb/division/coccus 1.36e-6 503
fix div2 CROSS2 nufeb/division/coccus 1.36e-6 1706
fix div3 CHEATER nufeb/division/coccus 1.36e-6 3709

fix death1 CROSS1 nufeb/death/diameter dead 5.43e-7
fix death2 CROSS2 nufeb/death/diameter dead 5.43e-7
fix death3 CHEATER nufeb/death/diameter dead 5.43e-7

#---------------------------Physical Processes--------------------------------#

pair_style  gran/hooke/history 1e-4 NULL 1e-5 NULL 0.0 0    # pairwise interaction
pair_coeff  * *                                             # between atoms

# pairwise interaction between z-wall and atoms
fix wall all wall/gran hooke/history 1e-3 NULL 1e-4 NULL 0 0 zplane 0.0 1e-04

fix vis all viscous 1e-5                                    # viscous damping force

fix grav all gravity 9.81 vector 0.0 0.0 -1.0

fix nve all nve/limit 1e-7                                  # NVE integration with
                                                            # maximum distance limit


#---------------------------Post-Physical Processes---------------------------#

fix coeff_sub all nufeb/diffusion_coeff sub ratio 0.8       # defining diffusion coeff in the biofilm
fix coeff_metab1 all nufeb/diffusion_coeff metab1 ratio 0.8    # region is 80% of the value in liquid
fix coeff_metab2 all nufeb/diffusion_coeff metab2 ratio 0.8

#---------------------------Chemical Processes---------------------------------#

fix diff_sub all nufeb/diffusion_reaction sub 1e-9        # diffusion reaction for updating
fix diff_metab1 all nufeb/diffusion_reaction metab1 4e-9     # distribusion of substrate concentration
fix diff_metab2 all nufeb/diffusion_reaction metab2 4e-9

#--------------------------Computations and Outputs----------------------------#

variable mass equal "mass(all)"                             # total mass
variable ncross1 equal "count(CROSS1)"                      # total # of CROSS1
variable ncross2 equal "count(CROSS2)"                      # total # of CROSS2
variable ncheater equal "count(CHEATER)"
variable ndead equal "count(dead)"

shell mkdir vtk_NEPS_ch                                            # dump vtk files to /vtk folder
dump du1 all vtk 10 vtk_NEPS_ch/dump*.vtu id type diameter         # require build NUFEB with vtk option
dump du2 all grid/vtk 10 vtk_NEPS_ch/dump_%_*.vti con rea den gro

#dump du3 all movie 10 movie.avi type diameter view 80 60    # dump video
#dump_modify du3 acolor 1 blue acolor 2 lightgrey framerate 10


                                                            # dump hdf5 files to /hdf5 folder
#shell mkdir hdf5                                           # require build NUFEB with hdf5 option
#dump du3 all nufeb/hdf5 10 dump.h5 id type x y z vx vy vz fx fy fz radius conc reac

thermo_style custom step cpu atoms v_ncross1 v_ncross2 v_ncheater v_ndead v_mass     # screen and log outputs
thermo 1
thermo_modify   lost ignore

#-----------------------------------Run----------------------------------------#

# issue run command, define timesteps for physical (pairdt) and chemical (diffdt) processes
run_style nufeb diffdt 1e-4 difftol 1e-6 pairdt 1e-2 pairtol 1 pairmax 1000 diffmax 5000

timestep 12000                                               # define biological timesteps (1000s)

run 320                                                    # growing biofilm for 900x1000s
Generated 0 of 6 mixed pair_coeff terms from geometric mixing rule
Last active /omp style is pair_style gran/hooke/history/omp
Neighbor list info ...
  update every 1 steps, delay 10 steps, check yes
  max neighbors/atom: 2000, page size: 100000
  master list distance cutoff = 2.49e-06
  ghost atom cutoff = 2.49e-06
  binsize = 1.245e-06, bins = 49 49 49
  1 neighbor lists, perpetual/occasional/extra = 1 0 0
  (1) pair gran/hooke/history/omp, perpetual
      attributes: half, newton off, size, history, omp
      pair build: half/size/bin/newtoff/omp
      stencil: full/bin/3d
      bin: standard
Per MPI rank memory allocation (min/avg/max) = 11.02 | 11.02 | 11.02 Mbytes
   Step          CPU          Atoms      v_ncross1      v_ncross2      v_ncheater      v_ndead         v_mass    
         0   0                    150   50             50             50             0              1.3295396e-13
         1   0.38281738           273   96             91             86             0              1.9616795e-13
         2   0.76114458           435   150            148            137            0              2.2355911e-13
         3   1.0891223            534   169            195            170            0              2.449821e-13 
         4   1.3848908            592   185            218            189            0              2.6427305e-13
         5   1.5635948            632   199            227            206            0              2.8224615e-13
         6   1.7223851            669   209            238            222            0              2.9927993e-13
         7   1.8947385            703   215            252            236            0              3.1573182e-13
         8   2.0514232            742   231            264            247            0              3.3154367e-13
         9   2.176015             779   236            271            272            0              3.4675702e-13
        10   2.3139767            828   247            286            295            0              3.6117428e-13
        11   2.4204591            852   257            291            304            0              3.7469285e-13
        12   2.5298682            876   265            296            315            0              3.8763944e-13
        13   2.6339184            910   269            308            333            0              4.0000489e-13
        14   2.7246614            941   275            315            351            0              4.116383e-13 
        15   2.8041699            970   287            319            364            0              4.2274881e-13
        16   2.8951975            994   292            322            380            0              4.333357e-13 
        17   2.9758477           1023   294            335            394            0              4.4346602e-13
        18   3.0603755           1042   300            337            405            0              4.5313833e-13
        19   3.1337              1069   304            340            425            0              4.6243061e-13
        20   3.237629            1100   309            344            447            0              4.7105091e-13
        21   3.3112878           1112   312            345            455            0              4.7935393e-13
        22   3.384337            1132   314            351            467            0              4.8725191e-13
        23   3.4696683           1154   319            356            479            0              4.9481752e-13
        24   3.5352027           1173   320            357            496            0              5.0204625e-13
        25   3.5990722           1192   321            364            507            0              5.0893694e-13
        26   3.6524568           1213   329            368            516            0              5.1551736e-13
        27   3.7088151           1230   332            369            529            0              5.217974e-13 
        28   3.7661194           1247   334            370            543            0              5.2771443e-13
        29   3.813175            1264   340            372            552            0              5.3336672e-13
        30   3.8795629           1288   346            374            568            0              5.3873864e-13
        31   3.9307628           1308   347            378            583            0              5.4390128e-13
        32   3.97917             1329   349            382            598            0              5.48838e-13  
        33   4.0254757           1345   354            384            607            0              5.5356893e-13
        34   4.0695987           1358   356            385            617            0              5.5806671e-13
        35   4.1327209           1375   357            387            631            0              5.6231599e-13
        36   4.2010871           1390   361            388            641            0              5.6645803e-13
        37   4.2676848           1404   363            390            651            0              5.7051497e-13
        38   4.3188912           1415   364            390            661            0              5.7441496e-13
        39   4.4044115           1428   366            391            671            0              5.779186e-13 
        40   13.444652           1442   370            392            680            0              5.8145154e-13
        41   13.522617           1455   372            392            691            0              5.8507595e-13
        42   13.606274           1471   375            394            702            0              5.8866978e-13
        43   13.697785           1484   377            394            713            0              5.9220689e-13
        44   13.808351           1496   380            394            722            0              5.9580255e-13
        45   13.915535           1509   382            394            733            0              5.9959908e-13
        46   14.022655           1525   382            394            749            0              6.0349868e-13
        47   14.123869           1541   384            396            761            0              6.0742899e-13
        48   14.220167           1552   385            396            771            0              6.114308e-13 
        49   14.317506           1564   386            396            782            0              6.1549953e-13
        50   14.420681           1579   388            396            795            0              6.1955582e-13
        51   14.496142           1605   389            397            819            0              6.2368135e-13
        52   14.598462           1620   389            397            834            0              6.2764577e-13
        53   14.69022            1635   389            398            847            1              6.3166722e-13
        54   14.780008           1650   390            399            860            1              6.3569299e-13
        55   14.84695            1668   390            399            877            2              6.3964996e-13
        56   14.946066           1686   391            399            891            5              6.4352424e-13
        57   15.038994           1703   392            399            906            6              6.4750164e-13
        58   15.121556           1717   394            399            915            9              6.5157833e-13
        59   15.19342            1737   396            399            932            10             6.5558126e-13
        60   27.425664           1749   397            400            939            13             6.5946076e-13
        61   27.515755           1767   397            400            952            18             6.6362757e-13
        62   27.608384           1784   397            400            960            27             6.6772986e-13
        63   27.687132           1800   398            400            970            32             6.7184293e-13
        64   27.804594           1814   398            400            974            42             6.7590611e-13
        65   27.888858           1832   399            400            977            56             6.8017393e-13
        66   27.967794           1853   399            400            994            60             6.8439626e-13
        67   28.058448           1875   399            400            1011           65             6.8858984e-13
        68   28.137565           1889   399            400            1020           70             6.9275089e-13
        69   28.221273           1905   400            400            1030           75             6.9685179e-13
        70   28.322195           1919   400            400            1035           84             7.0095576e-13
        71   28.425708           1933   400            400            1038           95             7.0498909e-13
        72   28.500179           1954   400            400            1049           105            7.0894237e-13
        73   28.570823           1974   400            400            1060           114            7.1283171e-13
        74   28.620036           1988   401            400            1068           119            7.1664841e-13
        75   28.704979           2000   401            400            1075           124            7.2028231e-13
        76   28.823111           2015   401            400            1085           129            7.2398837e-13
        77   28.926264           2031   401            400            1092           138            7.2789075e-13
        78   29.045462           2047   402            400            1104           141            7.3187643e-13
        79   29.174559           2068   402            400            1117           149            7.3579444e-13
        80   29.370232           2086   402            400            1133           151            7.3987165e-13
        81   29.568772           2105   402            400            1147           156            7.4442595e-13
        82   29.786156           2127   403            400            1165           159            7.4954524e-13
        83   30.022249           2148   403            400            1182           163            7.5517754e-13
        84   30.240452           2165   403            400            1195           167            7.6144704e-13
        85   30.433068           2191   403            400            1218           170            7.6814617e-13
        86   30.63587            2221   403            400            1243           175            7.7507398e-13
        87   30.821069           2244   405            400            1260           179            7.8221822e-13
        88   30.987329           2271   405            400            1281           185            7.8945848e-13
        89   31.116487           2303   405            400            1304           194            7.9667504e-13
        90   31.265839           2334   405            400            1329           200            8.0359455e-13
        91   31.391515           2368   405            400            1360           203            8.1038643e-13
        92   31.510068           2388   405            400            1376           207            8.1701332e-13
        93   31.644059           2417   405            400            1396           216            8.2348239e-13
        94   31.785873           2451   405            400            1425           221            8.2988175e-13
        95   31.93053            2477   405            400            1445           227            8.3635772e-13
        96   32.110163           2509   406            400            1470           233            8.427349e-13 
        97   32.291948           2538   406            400            1495           237            8.4939102e-13
        98   32.527479           2568   406            400            1522           240            8.5632246e-13
        99   32.741499           2589   406            400            1539           244            8.637378e-13 
       100   33.12791            2619   406            400            1565           248            8.7152762e-13
       101   33.39621            2654   406            400            1599           249            8.8028822e-13
       102   33.705069           2690   406            400            1632           252            8.8942869e-13
       103   34.01672            2734   406            400            1663           265            8.9939865e-13
       104   34.305551           2773   406            400            1694           273            9.1010894e-13
       105   34.594233           2827   406            400            1742           279            9.21288e-13  
       106   34.860009           2866   406            400            1773           287            9.3291788e-13
       107   35.131783           2918   407            399            1811           301            9.4463797e-13
       108   35.3753             2969   407            398            1856           308            9.5671162e-13
       109   35.607215           3010   407            398            1888           317            9.6861169e-13
       110   35.878331           3066   407            397            1938           324            9.8043886e-13
       111   36.109799           3123   406            397            1987           333            9.9250363e-13
       112   36.335205           3175   406            397            2031           341            1.0045346e-12
       113   36.558425           3222   406            397            2068           351            1.0164959e-12
       114   36.75591            3278   406            397            2118           357            1.0282961e-12
       115   36.987683           3327   406            397            2160           364            1.03978e-12  
       116   37.257276           3376   406            397            2198           375            1.0514311e-12
       117   37.531009           3439   406            397            2249           387            1.0635737e-12
       118   37.811244           3495   406            397            2297           395            1.0756523e-12
       119   38.154085           3541   406            396            2339           400            1.0879423e-12
       120   38.471272           3601   406            396            2395           404            1.1007335e-12
       121   38.837553           3658   406            396            2448           408            1.1141663e-12
       122   39.191564           3718   406            396            2504           412            1.1284157e-12
       123   39.533691           3782   406            396            2563           417            1.1431474e-12
       124   39.889444           3840   406            396            2615           423            1.1583186e-12
       125   40.217091           3899   404            396            2674           425            1.173991e-12 
       126   40.606258           3984   403            396            2755           430            1.1896333e-12
       127   40.949489           4042   403            396            2808           435            1.2063248e-12
       128   41.268812           4117   404            395            2880           438            1.2230293e-12
       129   41.566258           4201   404            395            2964           438            1.239835e-12 
       130   41.897826           4286   404            395            3046           441            1.2564376e-12
       131   42.255744           4355   404            395            3113           443            1.2730947e-12
       132   42.617076           4435   404            395            3193           443            1.2900167e-12
       133   42.961366           4518   404            395            3272           447            1.3072838e-12
       134   43.322535           4602   404            395            3355           448            1.3246831e-12
       135   43.658987           4683   404            394            3434           451            1.3422278e-12
       136   44.028013           4790   404            394            3539           453            1.3599476e-12
       137   44.40883            4863   404            394            3609           456            1.3779572e-12
       138   44.779117           4956   403            393            3701           459            1.3963719e-12
       139   45.173561           5041   403            392            3779           467            1.4150772e-12
       140   45.57193            5144   403            392            3875           474            1.4340746e-12
       141   45.940978           5223   403            392            3949           479            1.4531427e-12
       142   46.305042           5303   403            392            4023           485            1.4720548e-12
       143   46.688702           5387   403            392            4100           492            1.4912326e-12
       144   47.041702           5491   403            391            4200           497            1.5106426e-12
       145   47.417806           5590   403            391            4292           504            1.5295762e-12
       146   47.794302           5681   402            391            4374           514            1.5484616e-12
       147   48.199128           5772   402            391            4449           530            1.5673427e-12
       148   48.58152            5878   402            391            4544           541            1.5866536e-12
       149   48.99828            5976   402            391            4629           554            1.6058569e-12
       150   49.438139           6079   402            391            4722           564            1.6254458e-12
       151   49.863692           6177   402            390            4805           580            1.6457315e-12
       152   50.277996           6271   402            390            4889           590            1.6668895e-12
       153   50.67888            6376   402            390            4974           610            1.6883579e-12
       154   51.095021           6484   402            390            5068           624            1.710095e-12 
       155   51.509415           6599   402            390            5169           638            1.7323399e-12
       156   51.910344           6698   402            390            5246           660            1.7545374e-12
       157   52.314763           6804   402            390            5338           674            1.7766577e-12
       158   52.739425           6910   402            390            5427           691            1.7986199e-12
       159   53.148657           7035   402            390            5535           708            1.8207368e-12
       160   53.606646           7151   402            390            5629           730            1.8424646e-12
       161   54.054545           7269   402            390            5709           768            1.8642084e-12
       162   54.504096           7375   402            390            5788           795            1.8861141e-12
       163   54.944002           7485   401            390            5845           849            1.9084286e-12
       164   55.388549           7605   401            390            5939           875            1.9314024e-12
       165   55.837003           7721   400            390            6013           918            1.9550818e-12
       166   56.287855           7845   400            390            6105           950            1.9796509e-12
       167   56.721672           7960   398            389            6163           1010           2.004891e-12 
       168   57.150127           8071   398            389            6235           1049           2.0313258e-12
       169   57.592816           8210   398            389            6328           1095           2.057666e-12 
       170   58.071644           8317   398            389            6375           1155           2.0842588e-12
       171   58.586536           8472   398            389            6465           1220           2.1113437e-12
       172   59.036385           8610   398            389            6555           1268           2.1387645e-12
       173   59.524702           8745   398            389            6635           1323           2.16651e-12  
       174   60.008435           8887   398            388            6709           1392           2.1949768e-12
       175   60.498477           9028   398            388            6777           1465           2.2237548e-12
       176   61.005433           9159   398            388            6848           1525           2.253475e-12 
       177   61.487368           9316   398            387            6954           1577           2.2841459e-12
       178   61.969449           9477   397            387            7042           1651           2.3157192e-12
       179   62.468704           9637   397            387            7147           1706           2.3486389e-12
       180   62.976911           9789   396            386            7234           1773           2.3824652e-12
       181   63.491857           9947   395            386            7341           1825           2.4168818e-12
       182   63.988784          10103   395            386            7445           1877           2.4522362e-12
       183   64.498103          10272   394            386            7568           1924           2.4877626e-12
       184   65.054929          10454   394            385            7700           1975           2.5237812e-12
       185   65.591137          10629   394            385            7829           2021           2.5602283e-12
       186   66.131926          10816   392            385            7972           2067           2.5981927e-12
       187   66.677874          10987   392            385            8105           2105           2.6376955e-12
       188   67.236762          11191   392            385            8272           2142           2.6788585e-12
       189   67.824841          11381   392            384            8419           2186           2.7224258e-12
       190   68.503414          11600   391            384            8599           2226           2.7677218e-12
       191   69.073683          11798   391            384            8755           2268           2.813888e-12 
       192   69.685745          12014   391            384            8908           2331           2.8603665e-12
       193   70.311855          12209   391            384            9064           2370           2.9078636e-12
       194   70.939856          12406   391            384            9214           2417           2.9558951e-12
       195   71.569938          12639   391            382            9398           2468           3.0046792e-12
       196   72.252292          12876   391            382            9585           2518           3.0558086e-12
       197   72.95331           13086   391            382            9750           2563           3.1099947e-12
       198   73.714251          13329   390            381            9932           2626           3.1674389e-12
       199   74.431484          13579   390            380            10134          2675           3.2288281e-12
       200   75.245279          13848   389            379            10342          2738           3.2927223e-12
       201   76.026934          14124   389            378            10561          2796           3.3589956e-12
       202   76.793313          14407   389            378            10800          2840           3.4284798e-12
       203   77.662432          14667   389            378            10978          2922           3.5003301e-12
       204   78.60134           14989   389            378            11228          2994           3.5787668e-12
       205   79.637681          15318   389            378            11486          3065           3.6650245e-12
       206   80.667968          15665   389            377            11754          3145           3.7599276e-12
       207   81.745374          16056   389            376            12060          3231           3.8633384e-12
       208   83.010926          16447   389            376            12370          3312           3.9771568e-12
       209   84.3258            16856   389            375            12703          3389           4.0968181e-12
       210   85.814859          17267   389            375            13038          3465           4.2177211e-12
       211   87.449862          17716   388            374            13421          3533           4.3518917e-12
       212   89.226112          18212   388            372            13845          3607           4.4865985e-12
       213   91.336158          18664   388            372            14208          3696           4.6149371e-12
       214   93.394886          19164   385            372            14619          3788           4.7480097e-12
       215   95.64739           19676   385            372            15056          3863           4.8902109e-12
       216   97.978991          20188   385            368            15477          3958           5.0314325e-12
       217   100.37729          20690   385            368            15901          4036           5.1699837e-12
       218   102.78936          21238   385            368            16394          4091           5.3174399e-12
       219   105.25933          21794   384            367            16879          4164           5.4700014e-12
       220   107.80526          22314   382            365            17318          4249           5.6109799e-12
       221   110.35961          22902   381            364            17822          4335           5.7639907e-12
       222   112.91462          23436   380            364            18267          4425           5.9179359e-12
       223   115.49452          23979   377            358            18724          4520           6.0710633e-12
       224   118.12295          24636   377            356            19303          4600           6.239172e-12 
       225   120.7835           25241   374            353            19825          4689           6.4159271e-12
       226   123.46753          25866   373            351            20350          4792           6.5746567e-12
       227   126.11951          26518   373            349            20897          4899           6.7606666e-12
       228   128.77866          27216   369            348            21501          4998           6.9332787e-12
       229   131.4653           27880   369            342            22034          5135           7.117154e-12 
       230   134.19419          28593   367            340            22620          5266           7.3194612e-12
       231   136.86326          29285   363            336            23162          5424           7.5045013e-12
       232   139.51411          30002   359            330            23745          5568           7.7013642e-12
       233   142.18648          30764   354            324            24351          5735           7.9015172e-12
       234   144.87292          31561   349            321            25003          5888           8.0931311e-12
       235   147.55144          32253   342            316            25502          6093           8.278157e-12 
       236   150.21278          33001   332            307            26097          6265           8.4779053e-12
       237   152.89401          33785   326            301            26690          6468           8.6929523e-12
       238   155.59309          34627   320            294            27333          6680           8.8866633e-12
       239   158.30123          35439   307            285            27949          6898           9.0777564e-12
       240   161.13252          36243   293            273            28564          7113           9.291343e-12 
       241   163.80321          36943   283            257            29055          7348           9.4715041e-12
       242   166.51218          37794   269            238            29709          7578           9.666747e-12 
       243   169.20936          38661   257            224            30359          7821           9.8708413e-12
       244   171.9174           39424   245            207            30894          8078           1.0039274e-11
       245   174.63623          40262   220            194            31484          8364           1.0229272e-11
       246   177.33474          40987   206            177            31991          8613           1.0386998e-11
       247   180.06101          41718   193            160            32502          8863           1.055434e-11 
       248   182.77498          42531   162            140            33103          9126           1.0721559e-11
       249   185.53518          43222   145            117            33548          9412           1.0828161e-11
       250   188.37338          43885   124            105            33944          9712           1.0962134e-11
       251   191.14518          44577   107            93             34354          10023          1.1065295e-11
       252   193.92433          45162   87             83             34690          10302          1.1190083e-11
       253   196.74149          45853   75             70             35075          10633          1.1263816e-11
       254   199.54873          46464   64             61             35394          10945          1.1362173e-11
       255   202.37783          47114   56             51             35756          11251          1.1438752e-11
       256   205.21922          47708   46             45             36052          11565          1.1519621e-11
       257   208.09336          48195   35             40             36279          11841          1.1561161e-11
       258   210.96848          48820   28             29             36613          12150          1.1620977e-11
       259   213.84282          49355   21             25             36864          12445          1.1691063e-11
       260   216.8647           49894   12             21             37157          12704          1.1724051e-11
       261   219.74552          50445   7              13             37441          12984          1.1759583e-11
       262   222.68178          50933   7              10             37684          13232          1.1797922e-11
       263   225.60337          51410   7              4              37915          13484          1.183399e-11 
       264   228.56021          51941   6              3              38201          13731          1.1859713e-11
       265   231.55514          52357   5              3              38349          14000          1.1853537e-11
       266   234.5805           52911   4              3              38647          14257          1.1894964e-11
       267   237.62171          53285   3              2              38735          14545          1.1899992e-11
       268   240.67481          53733   3              0              38920          14810          1.1898512e-11
       269   243.73201          54163   3              0              39084          15076          1.189202e-11 
       270   246.89301          54587   2              0              39235          15350          1.1900271e-11
       271   249.9951           54876   2              0              39243          15631          1.1860366e-11
       272   253.09318          55405   2              0              39459          15944          1.188577e-11 
       273   256.21331          55836   2              0              39577          16257          1.1894134e-11
       274   259.41429          56199   2              0              39611          16586          1.1872953e-11
       275   262.5684           56501   2              0              39579          16920          1.1847398e-11
       276   265.72804          56940   2              0              39677          17261          1.1844471e-11
       277   268.94522          57333   2              0              39744          17587          1.1838114e-11
       278   272.20633          57705   2              0              39806          17897          1.1840823e-11
       279   275.47084          58115   2              0              39891          18222          1.1842379e-11
       280   278.9345           58514   2              0              39972          18540          1.1833179e-11
       281   282.24934          58971   2              0              40124          18845          1.1845407e-11
       282   285.5921           59252   2              0              40097          19153          1.1834475e-11
       283   288.98351          59535   2              0              40081          19452          1.1800132e-11
       284   292.31975          60012   2              0              40255          19755          1.1810346e-11
       285   295.73888          60415   2              0              40377          20036          1.1809061e-11
       286   299.17338          60773   2              0              40418          20353          1.1799328e-11
       287   302.64584          61057   2              0              40399          20656          1.1774396e-11
       288   306.14518          61398   2              0              40441          20955          1.1776857e-11
       289   309.66132          61787   2              0              40512          21273          1.1787289e-11
       290   313.34889          62203   2              0              40611          21590          1.176751e-11 
       291   316.95713          62533   2              0              40634          21897          1.1763846e-11
       292   320.55005          62911   2              0              40676          22233          1.176006e-11 
       293   324.18572          63217   2              0              40614          22601          1.1765699e-11
       294   327.86212          63470   2              0              40515          22953          1.1740401e-11
       295   331.50728          63888   2              0              40573          23313          1.1756708e-11
       296   335.19704          64356   2              0              40691          23663          1.1763464e-11
       297   338.96582          64606   2              0              40531          24073          1.173917e-11 
       298   342.73209          64949   2              0              40499          24448          1.1750747e-11
       299   346.51619          65239   2              0              40423          24814          1.1738688e-11
       300   350.45022          65629   2              0              40409          25218          1.1767024e-11
       301   354.30522          65952   2              0              40318          25632          1.1759567e-11
       302   358.1622           66305   2              0              40231          26072          1.1742992e-11
       303   362.09084          66614   2              0              40143          26469          1.1744473e-11
       304   365.99308          66960   2              0              40034          26924          1.1735661e-11
       305   369.73564          67344   2              0              39923          27419          1.1782768e-11
       306   373.61057          67596   2              0              39726          27868          1.1764671e-11
       307   377.60647          67993   2              0              39679          28312          1.1762733e-11
       308   381.46434          68381   2              0              39634          28745          1.1780474e-11
       309   385.49274          68602   2              0              39373          29227          1.1759101e-11
       310   389.52376          68967   2              0              39292          29673          1.1782918e-11
       311   393.61729          69217   2              0              39036          30179          1.1760751e-11
       312   397.70895          69516   2              0              38873          30641          1.1767235e-11
       313   401.65933          69979   2              0              38881          31096          1.1803757e-11
       314   405.70997          70195   2              0              38600          31593          1.178389e-11 
       315   409.78445          70489   2              0              38423          32064          1.1778609e-11
       316   413.81925          70882   2              0              38376          32504          1.1795222e-11
       317   417.93394          71186   2              0              38218          32966          1.1793207e-11
       318   422.03094          71571   2              0              38140          33429          1.1832599e-11
       319   426.1417           71793   2              0              37936          33855          1.1826829e-11
       320   430.47374          72173   2              0              37838          34333          1.1842238e-11
Loop time of 430.474 on 16 procs for 320 steps with 72173 atoms

96.3% CPU use with 16 MPI tasks x 1 OpenMP threads

MPI task timing breakdown:
Section |  min time  |  avg time  |  max time  |%varavg| %total
---------------------------------------------------------------
Pair    | 55.504     | 87.327     | 143.87     | 279.4 | 20.29
Neigh   | 9.9833     | 21.863     | 58.576     | 310.6 |  5.08
Comm    | 51.828     | 62.838     | 80.132     | 117.7 | 14.60
Output  | 23.096     | 23.096     | 23.096     |   0.0 |  5.37
Modify  | 117.06     | 214.99     | 264.71     | 302.2 | 49.94
Other   |            | 20.36      |            |       |  4.73

Nlocal:        4510.81 ave        9415 max        3051 min
Histogram: 7 4 1 2 0 0 0 0 0 2
Nghost:        3526.62 ave        6072 max        2597 min
Histogram: 6 4 1 1 0 1 1 0 1 1
Neighs:          30772 ave       42770 max       23779 min
Histogram: 2 2 4 1 3 2 0 0 0 2

Total # of neighbors = 492352
Ave neighs/atom = 6.8218309
Neighbor list builds = 3818
Dangerous builds = 345

Total wall time: 0:08:02
