LAMMPS (23 Jun 2022 - Update 4)
  using 1 OpenMP thread(s) per MPI task
package omp 0
using multi-threaded neighbor list subroutines
#-----------------------------------------------------------------------------#
#                NUFEB Simulation: Heterotrophic Biofilm Growth               #
#-----------------------------------------------------------------------------#


#-----------------------------System Settings---------------------------------#

units si                                    # using si units (m, s, kg)
atom_style      coccus                      # using nufeb coccus atom style
atom_modify     map array sort 10 0         # map array - find atoms using indices
		                            # sort every 10

boundary        pp pp ff                    # periodic boundaries in x and y
                                            # fixed boundary in z

newton          off                         # forces between local and ghost
                                            # atoms are computed in each
					     # processor without communication

processors      * * 1                       # processor grid

comm_modify     vel yes                     # communicate velocities for ghost atoms

read_data       atom_ch.in	             # read atom.in file which defines domain size
Reading data file ...
  orthogonal box = (0 0 0) to (6e-05 6e-05 6e-05)
  4 by 4 by 1 MPI processor grid
  reading atoms ...
  150 atoms
  read_data CPU = 0.013 seconds
                                            # and initial atoms


#--------------------Microbes and Functional Groups-------------------------#

group           CROSS1   type 1               # assign type 1,2 atoms to CROSS group
50 atoms in group CROSS1
group           CROSS2   type 2
50 atoms in group CROSS2
group		CHEATER  type 3
50 atoms in group CHEATER
group           dead     type 4
0 atoms in group dead

neighbor        5e-7 bin                   # setting neighbour skin distance and style

neigh_modify    check yes                  # rebuild neighbour list if any atom
                                           # had moved more than half the skin distance


#--------------------------Mesh Grid and Substrates--------------------------#

# defining grid sytle, substrate names, and grid size
grid_style      nufeb/chemostat 3 sub metab1 metab2 5e-6

# set diffusion boundary conditions and initial concentrations (liquid:kg/m3)
grid_modify     set sub      pp pp nd  1.8e-4
No /omp style for force computation currently active
grid_modify     set metab1   pp pp nd  1e-4
No /omp style for force computation currently active
grid_modify     set metab2   pp pp nd  1e-4
No /omp style for force computation currently active


#--------------------------Biological Processes-------------------------------#

# heterotrophs growth
fix growth_cross1 CROSS1 nufeb/growth/cross1 sub 3.5e-5 metab2 4e-3 metab1 growth 0.009 yield 0.6 decay 2.6e-6 metab1_exp 20

fix growth_cross2 CROSS2 nufeb/growth/cross2 sub 3.5e-5 metab1 4e-3 metab2 growth 0.009 yield 0.6 decay 2.6e-6 metab2_exp 20

fix growth_cheater CHEATER nufeb/growth/cheater sub 3.5e-5 metab1 1e-3 metab2 1e-3 growth 0.009 yield 0.6 decay 2.6e-6
# heterotrophs division, division diameter: 1.36e-6
fix div1 CROSS1 nufeb/division/coccus 1.36e-6 1399
fix div2 CROSS2 nufeb/division/coccus 1.36e-6 5290
fix div3 CHEATER nufeb/division/coccus 1.36e-6 11773

fix death1 CROSS1 nufeb/death/diameter dead 5.43e-7
fix death2 CROSS2 nufeb/death/diameter dead 5.43e-7
fix death3 CHEATER nufeb/death/diameter dead 5.43e-7

#---------------------------Physical Processes--------------------------------#

pair_style  gran/hooke/history 1e-4 NULL 1e-5 NULL 0.0 0    # pairwise interaction
pair_coeff  * *                                             # between atoms

# pairwise interaction between z-wall and atoms
fix wall all wall/gran hooke/history 1e-3 NULL 1e-4 NULL 0 0 zplane 0.0 1e-04

fix vis all viscous 1e-5                                    # viscous damping force

fix grav all gravity 9.81 vector 0.0 0.0 -1.0

fix nve all nve/limit 1e-7                                  # NVE integration with
                                                            # maximum distance limit


#---------------------------Post-Physical Processes---------------------------#

fix coeff_sub all nufeb/diffusion_coeff sub ratio 0.8       # defining diffusion coeff in the biofilm
fix coeff_metab1 all nufeb/diffusion_coeff metab1 ratio 0.8    # region is 80% of the value in liquid
fix coeff_metab2 all nufeb/diffusion_coeff metab2 ratio 0.8

#---------------------------Chemical Processes---------------------------------#

fix diff_sub all nufeb/diffusion_reaction sub 1e-9        # diffusion reaction for updating
fix diff_metab1 all nufeb/diffusion_reaction metab1 4e-9     # distribusion of substrate concentration
fix diff_metab2 all nufeb/diffusion_reaction metab2 4e-9

#--------------------------Computations and Outputs----------------------------#

variable mass equal "mass(all)"                             # total mass
variable ncross1 equal "count(CROSS1)"                      # total # of CROSS1
variable ncross2 equal "count(CROSS2)"                      # total # of CROSS2
variable ncheater equal "count(CHEATER)"
variable ndead equal "count(dead)"

shell mkdir vtk_NEPS_ch                                            # dump vtk files to /vtk folder
dump du1 all vtk 10 vtk_NEPS_ch/dump*.vtu id type diameter         # require build NUFEB with vtk option
dump du2 all grid/vtk 10 vtk_NEPS_ch/dump_%_*.vti con rea den gro

#dump du3 all movie 10 movie.avi type diameter view 80 60    # dump video
#dump_modify du3 acolor 1 blue acolor 2 lightgrey framerate 10


                                                            # dump hdf5 files to /hdf5 folder
#shell mkdir hdf5                                           # require build NUFEB with hdf5 option
#dump du3 all nufeb/hdf5 10 dump.h5 id type x y z vx vy vz fx fy fz radius conc reac

thermo_style custom step cpu atoms v_ncross1 v_ncross2 v_ncheater v_ndead v_mass     # screen and log outputs
thermo 1
thermo_modify   lost ignore

#-----------------------------------Run----------------------------------------#

# issue run command, define timesteps for physical (pairdt) and chemical (diffdt) processes
run_style nufeb diffdt 1e-4 difftol 1e-6 pairdt 1e-2 pairtol 1 pairmax 1000 diffmax 5000

timestep 12000                                               # define biological timesteps (1000s)

run 320                                                    # growing biofilm for 900x1000s
Generated 0 of 6 mixed pair_coeff terms from geometric mixing rule
Last active /omp style is pair_style gran/hooke/history/omp
Neighbor list info ...
  update every 1 steps, delay 10 steps, check yes
  max neighbors/atom: 2000, page size: 100000
  master list distance cutoff = 2.49e-06
  ghost atom cutoff = 2.49e-06
  binsize = 1.245e-06, bins = 49 49 49
  1 neighbor lists, perpetual/occasional/extra = 1 0 0
  (1) pair gran/hooke/history/omp, perpetual
      attributes: half, newton off, size, history, omp
      pair build: half/size/bin/newtoff/omp
      stencil: full/bin/3d
      bin: standard
Per MPI rank memory allocation (min/avg/max) = 11.02 | 11.02 | 11.02 Mbytes
   Step          CPU          Atoms      v_ncross1      v_ncross2      v_ncheater      v_ndead         v_mass    
         0   0                    150   50             50             50             0              1.3295396e-13
         1   0.38433702           273   96             91             86             0              1.9616795e-13
         2   0.76709205           433   150            148            135            0              2.2413937e-13
         3   1.066426             542   174            199            169            0              2.456123e-13 
         4   1.353981             587   188            211            188            0              2.6418753e-13
         5   1.5541147            629   199            231            199            0              2.815218e-13 
         6   1.6955146            661   206            243            212            0              2.9788269e-13
         7   1.8195505            697   218            254            225            0              3.1332893e-13
         8   1.9420464            730   230            263            237            0              3.2803721e-13
         9   2.0505955            774   243            278            253            0              3.4199324e-13
        10   2.1685418            801   251            287            263            0              3.5518911e-13
        11   2.2621829            829   259            296            274            0              3.6770092e-13
        12   2.3478023            861   266            303            292            0              3.7966658e-13
        13   2.4464757            896   273            315            308            0              3.9105321e-13
        14   2.5512254            926   279            323            324            0              4.0213359e-13
        15   2.6228677            951   287            330            334            0              4.1237002e-13
        16   2.7268005            978   297            331            350            0              4.2212259e-13
        17   2.8206209            998   299            339            360            0              4.3130375e-13
        18   2.9060738           1015   302            343            370            0              4.4015376e-13
        19   2.9832078           1034   305            349            380            0              4.48583e-13  
        20   3.0671369           1062   314            355            393            0              4.5661108e-13
        21   3.1421185           1096   321            362            413            0              4.6425472e-13
        22   3.2108555           1118   326            367            425            0              4.7161639e-13
        23   3.2794357           1140   330            370            440            0              4.7857643e-13
        24   3.379103            1175   339            376            460            0              4.8523911e-13
        25   3.4487071           1185   342            376            467            0              4.9182102e-13
        26   3.5100978           1194   343            379            472            0              4.9814808e-13
        27   3.5703901           1206   344            379            483            0              5.0422189e-13
        28   3.6299248           1220   348            379            493            0              5.1005831e-13
        29   3.68129             1238   354            382            502            0              5.1542334e-13
        30   3.7961406           1256   357            385            514            0              5.2054153e-13
        31   3.8453667           1273   357            388            528            0              5.2564106e-13
        32   3.8897424           1287   358            388            541            0              5.3036404e-13
        33   3.9469172           1303   359            391            553            0              5.3486677e-13
        34   3.9899193           1313   359            395            559            0              5.391645e-13 
        35   4.0304586           1338   361            397            580            0              5.4321493e-13
        36   4.0700117           1345   363            398            584            0              5.4705803e-13
        37   4.1107461           1362   366            400            596            0              5.507218e-13 
        38   4.1477514           1375   370            403            602            0              5.5427407e-13
        39   4.2008952           1387   374            403            610            0              5.5765151e-13
        40   4.2548592           1399   374            405            620            0              5.6069992e-13
        41   4.2861726           1409   376            407            626            0              5.6354233e-13
        42   4.3160318           1414   376            407            631            0              5.6621067e-13
        43   4.3462188           1425   381            410            634            0              5.6872641e-13
        44   4.3758654           1433   381            410            642            0              5.7108727e-13
        45   4.4017117           1445   385            411            649            0              5.7329738e-13
        46   4.4282529           1455   385            414            656            0              5.7536825e-13
        47   4.4906281           1468   391            416            661            0              5.7729806e-13
        48   4.530906            1476   393            417            666            0              5.7933054e-13
        49   4.5744753           1481   394            417            670            0              5.8119439e-13
        50   4.6461275           1493   396            419            678            0              5.8299894e-13
        51   4.6976159           1500   397            419            684            0              5.8472476e-13
        52   4.7421706           1512   399            420            693            0              5.8642707e-13
        53   4.7733245           1521   400            420            701            0              5.8807451e-13
        54   4.8151442           1529   402            421            706            0              5.8962775e-13
        55   4.8644542           1535   402            422            710            1              5.911276e-13 
        56   4.8943501           1547   406            426            710            5              5.9261173e-13
        57   4.9327498           1554   407            426            716            5              5.9401e-13   
        58   4.977947            1558   407            427            719            5              5.9542951e-13
        59   5.0198202           1565   409            428            720            8              5.9680603e-13
        60   5.0715992           1570   409            428            723            10             5.9816088e-13
        61   5.1241131           1578   410            429            725            14             5.9945357e-13
        62   5.1726662           1585   411            429            729            16             6.0082047e-13
        63   5.2111254           1598   411            429            739            19             6.0213657e-13
        64   5.2505461           1607   411            429            742            25             6.0338055e-13
        65   5.3052203           1613   412            429            741            31             6.0462315e-13
        66   5.3509735           1619   412            429            737            41             6.0591399e-13
        67   5.6588437           1621   412            430            735            44             6.0721054e-13
        68   5.7063696           1628   412            432            738            46             6.0851221e-13
        69   5.7379859           1634   412            432            732            58             6.0978237e-13
        70   5.8497943           1639   412            432            729            66             6.1102306e-13
        71   5.8851272           1646   413            433            724            76             6.1225622e-13
        72   5.9330523           1653   413            433            721            86             6.1345099e-13
        73   5.9897872           1661   413            433            724            91             6.1465609e-13
        74   6.0354756           1670   414            433            725            98             6.1595521e-13
        75   6.1023345           1675   414            434            722            105            6.1723639e-13
        76   6.1544198           1678   414            434            721            109            6.1849582e-13
        77   6.1954421           1684   414            434            718            118            6.19644e-13  
        78   6.2804808           1688   415            434            710            129            6.2073852e-13
        79   6.3148451           1696   415            434            713            134            6.2201191e-13
        80   6.3659261           1699   415            434            712            138            6.2327765e-13
        81   6.4094227           1706   417            435            707            147            6.2452547e-13
        82   6.4509644           1713   417            436            709            151            6.2580314e-13
        83   6.4883804           1716   417            436            706            157            6.2707454e-13
        84   6.5251286           1721   417            436            708            160            6.2832981e-13
        85   6.5594888           1726   418            437            706            165            6.2956254e-13
        86   6.5904243           1736   418            437            709            172            6.3072841e-13
        87   6.6206854           1743   418            437            711            177            6.3179066e-13
        88   6.6524178           1749   418            438            711            182            6.3283255e-13
        89   6.6847042           1752   418            438            713            183            6.3385726e-13
        90   6.7352521           1756   418            438            716            184            6.3485724e-13
        91   6.7791898           1759   418            439            716            186            6.3584242e-13
        92   6.8184533           1763   418            439            717            189            6.3686153e-13
        93   6.8567428           1770   418            439            722            191            6.3784844e-13
        94   6.8951351           1775   418            439            725            193            6.3882294e-13
        95   6.933152            1779   418            439            725            197            6.3978537e-13
        96   6.9765619           1780   418            439            723            200            6.4073154e-13
        97   7.0143281           1784   418            440            725            201            6.4169014e-13
        98   7.0506684           1785   419            440            723            203            6.4263706e-13
        99   7.086777            1797   419            441            731            206            6.4356655e-13
       100   7.1401538           1803   419            441            734            209            6.44485e-13  
       101   7.1629239           1810   419            441            741            209            6.4539052e-13
       102   7.1991411           1814   419            441            744            210            6.4626249e-13
       103   7.234518            1816   419            441            743            213            6.4713794e-13
       104   7.2689928           1819   419            441            745            214            6.4800373e-13
       105   7.3030059           1824   419            441            750            214            6.4885641e-13
       106   7.3366761           1828   419            441            752            216            6.4969266e-13
       107   7.3693589           1832   419            441            753            219            6.5051519e-13
       108   7.4010768           1833   419            441            751            222            6.5132491e-13
       109   7.4304539           1835   419            441            751            224            6.5212069e-13
       110   7.4776705           1837   419            441            753            224            6.5289292e-13
       111   7.5094979           1840   420            441            753            226            6.5365749e-13
       112   7.5414472           1846   420            441            755            230            6.5442607e-13
       113   7.5722111           1854   421            441            761            231            6.5516724e-13
       114   7.6022912           1855   421            441            759            234            6.5589075e-13
       115   7.624266            1856   421            441            756            238            6.5660027e-13
       116   7.6526194           1863   421            441            762            239            6.5728545e-13
       117   7.6815615           1867   421            441            763            242            6.5795061e-13
       118   7.7099441           1867   421            441            761            244            6.586032e-13 
       119   7.7274989           1873   421            441            765            246            6.5924108e-13
       120   7.7621272           1875   421            441            766            247            6.5985266e-13
       121   7.7900116           1875   421            441            765            248            6.6043639e-13
       122   7.8195433           1876   421            441            764            250            6.6100636e-13
       123   7.8466734           1878   421            442            758            257            6.615701e-13 
       124   7.8732298           1881   421            442            759            259            6.6212683e-13
       125   7.8986125           1884   421            443            758            262            6.6266793e-13
       126   7.9204251           1889   421            443            761            264            6.6319883e-13
       127   7.9515524           1892   421            443            763            265            6.6369655e-13
       128   7.9786213           1894   421            443            765            265            6.6420071e-13
       129   8.0469267           1898   421            444            767            266            6.6469024e-13
       130   8.1003349           1902   422            444            769            267            6.6501947e-13
       131   8.13666             1904   423            444            766            271            6.6531528e-13
       132   8.1695312           1908   424            444            768            272            6.6558794e-13
       133   8.1997054           1910   424            444            768            274            6.6584037e-13
       134   8.2277088           1913   426            444            769            274            6.6607832e-13
       135   8.2536789           1913   426            444            766            277            6.66304e-13  
       136   8.2782793           1915   426            444            768            277            6.6652187e-13
       137   8.3004387           1915   426            444            768            277            6.6672561e-13
       138   8.3224635           1919   427            444            770            278            6.6692096e-13
       139   8.3502341           1921   427            444            772            278            6.6711063e-13
       140   8.4131102           1923   427            444            773            279            6.6731449e-13
       141   8.4544458           1929   428            445            776            280            6.6749342e-13
       142   8.4790939           1929   428            445            776            280            6.6761795e-13
       143   8.5083041           1933   429            445            778            281            6.6773161e-13
       144   8.5307325           1935   430            445            779            281            6.6782788e-13
       145   8.5493143           1936   430            445            779            282            6.6792507e-13
       146   8.5676338           1936   430            445            779            282            6.6801806e-13
       147   8.5902197           1938   431            445            780            282            6.6810521e-13
       148   8.6054295           1939   431            445            781            282            6.6818216e-13
       149   8.6229969           1941   431            445            782            283            6.6824738e-13
       150   8.6552983           1942   431            445            783            283            6.6831135e-13
       151   8.6735188           1945   433            445            784            283            6.683726e-13 
       152   8.6886222           1945   433            445            782            285            6.6843468e-13
       153   8.7065342           1948   433            445            784            286            6.6849558e-13
       154   8.722235            1950   433            445            786            286            6.6854824e-13
       155   8.7413602           1950   433            445            786            286            6.6859963e-13
       156   8.7562809           1953   434            445            788            286            6.6865564e-13
       157   8.7711              1954   434            445            788            287            6.6870948e-13
       158   8.7853568           1954   434            445            788            287            6.6876505e-13
       159   8.7993196           1954   434            445            787            288            6.6881841e-13
       160   8.8296955           1956   434            445            789            288            6.688714e-13 
       161   8.8436132           1959   435            445            790            289            6.6892103e-13
       162   8.8603219           1962   436            445            791            290            6.6897271e-13
       163   8.8730211           1963   437            445            790            291            6.6902424e-13
       164   8.8856239           1965   438            445            790            292            6.6907558e-13
       165   8.8979763           1965   438            445            790            292            6.6912651e-13
       166   8.9119968           1966   438            445            790            293            6.6917518e-13
       167   8.9243199           1968   438            445            792            293            6.6921477e-13
       168   8.9369448           1969   438            445            793            293            6.692534e-13 
       169   8.9556022           1971   438            445            795            293            6.6928977e-13
       170   8.9857572           1971   438            445            794            294            6.6931221e-13
       171   8.9986717           1972   438            445            794            295            6.6933718e-13
       172   9.0114117           1972   438            445            794            295            6.6936403e-13
       173   9.0245183           1973   438            445            794            296            6.693891e-13 
       174   9.0368281           1973   438            445            794            296            6.6941417e-13
       175   9.0481767           1976   439            445            796            296            6.6943898e-13
       176   9.0602708           1976   439            445            796            296            6.6945906e-13
       177   9.0723031           1976   439            445            796            296            6.6947946e-13
       178   9.0835389           1976   439            445            796            296            6.6949993e-13
       179   9.0972353           1977   439            446            796            296            6.6951943e-13
       180   9.1272574           1977   439            446            796            296            6.6954056e-13
       181   9.1383116           1978   439            446            797            296            6.6956441e-13
       182   9.149143            1978   439            446            797            296            6.6958763e-13
       183   9.1598166           1978   439            446            797            296            6.6961023e-13
       184   9.1746854           1978   439            446            797            296            6.696322e-13 
       185   9.184977            1981   439            446            800            296            6.6964789e-13
       186   9.1998695           1982   439            446            801            296            6.696637e-13 
       187   9.2131693           1982   439            446            800            297            6.6967736e-13
       188   9.2230503           1984   439            446            802            297            6.6969572e-13
       189   9.2326619           1984   439            446            801            298            6.6971389e-13
       190   9.2589277           1984   439            446            801            298            6.6973365e-13
       191   9.2683541           1984   439            446            800            299            6.6975279e-13
       192   9.2776712           1986   439            446            802            299            6.6977334e-13
       193   9.2868789           1986   439            446            802            299            6.6979337e-13
       194   9.2959883           1986   439            446            802            299            6.6981287e-13
       195   9.3049665           1986   439            446            802            299            6.6983181e-13
       196   9.3155016           1986   439            446            802            299            6.6985019e-13
       197   9.3241855           1986   439            446            802            299            6.6986699e-13
       198   9.3354532           1986   439            446            802            299            6.6988333e-13
       199   9.3443748           1986   439            446            802            299            6.698953e-13 
       200   9.370706            1986   439            446            802            299            6.6990731e-13
       201   9.3795004           1986   439            446            802            299            6.6991923e-13
       202   9.3881945           1986   439            446            802            299            6.6993102e-13
       203   9.3967528           1987   439            446            803            299            6.6994265e-13
       204   9.4052037           1987   439            446            803            299            6.6995409e-13
       205   9.4135857           1987   439            446            803            299            6.6996532e-13
       206   9.4218385           1987   439            446            803            299            6.6997633e-13
       207   9.4313511           1987   439            446            803            299            6.699871e-13 
       208   9.4394235           1987   439            446            802            300            6.6999763e-13
       209   9.4474112           1987   439            446            802            300            6.700097e-13 
       210   9.4715378           1987   439            446            802            300            6.7002143e-13
       211   9.4873956           1987   439            446            802            300            6.7003282e-13
       212   9.4952208           1987   439            446            802            300            6.7004756e-13
       213   9.5027513           1987   439            446            802            300            6.7006187e-13
       214   9.5147424           1988   439            446            803            300            6.7007567e-13
       215   9.5217107           1988   439            446            803            300            6.7009146e-13
       216   9.5283395           1989   439            446            804            300            6.7010651e-13
       217   9.5405368           1990   439            446            805            300            6.7012082e-13
       218   9.551638            1990   439            446            805            300            6.7013314e-13
       219   9.5583556           1990   439            446            805            300            6.7014316e-13
       220   9.5855719           1990   439            446            805            300            6.7015277e-13
       221   9.5922537           1990   439            446            805            300            6.7016198e-13
       222   9.5988656           1991   440            446            805            300            6.701708e-13 
       223   9.6053792           1991   440            446            805            300            6.7017926e-13
       224   9.6118152           1991   440            446            805            300            6.7018736e-13
       225   9.6181943           1991   440            446            805            300            6.7019512e-13
       226   9.6244973           1991   440            446            805            300            6.7020254e-13
       227   9.6338503           1992   440            446            806            300            6.7020963e-13
       228   9.6401957           1993   440            446            807            300            6.7021692e-13
       229   9.6463049           1993   440            446            807            300            6.7022394e-13
       230   9.6915786           1993   440            446            807            300            6.7023063e-13
       231   9.6975813           1993   440            446            807            300            6.7023701e-13
       232   9.7035157           1993   440            446            807            300            6.7024309e-13
       233   9.7093716           1993   440            446            807            300            6.7024887e-13
       234   9.7259062           1993   440            446            807            300            6.7025436e-13
       235   9.7357074           1994   440            446            808            300            6.702617e-13 
       236   9.7421356           1994   440            446            808            300            6.7026822e-13
       237   9.753842            1994   440            446            808            300            6.7027441e-13
       238   9.7672582           1995   441            446            808            300            6.7027892e-13
       239   9.773481            1995   441            446            808            300            6.7028351e-13
       240   9.801669            1995   441            446            808            300            6.7028796e-13
       241   9.8078694           1995   441            446            808            300            6.7029226e-13
       242   9.8141824           1995   441            446            808            300            6.7029637e-13
       243   9.8205043           1995   441            446            808            300            6.7030023e-13
       244   9.8264513           1995   441            446            808            300            6.7030385e-13
       245   9.8322421           1995   441            446            808            300            6.7030723e-13
       246   9.8378576           1996   441            446            809            300            6.7031039e-13
       247   9.8434455           1996   441            446            809            300            6.7031334e-13
       248   9.8489642           1996   441            446            809            300            6.7031607e-13
       249   9.8543733           1996   441            446            809            300            6.7031862e-13
       250   9.8873974           1996   441            446            809            300            6.7032097e-13
       251   9.8927131           1996   441            446            808            301            6.7032315e-13
       252   9.8979495           1996   441            446            808            301            6.7032695e-13
       253   9.903131            1996   441            446            808            301            6.7033051e-13
       254   9.9082528           1996   441            446            808            301            6.7033384e-13
       255   9.9133236           1996   441            446            808            301            6.7033697e-13
       256   9.9183491           1996   441            446            808            301            6.7033989e-13
       257   9.9233194           1996   441            446            808            301            6.7034263e-13
       258   9.9282051           1996   441            446            808            301            6.7034518e-13
       259   9.9392009           1997   441            446            809            301            6.7034757e-13
       260   9.9669711           1997   441            446            809            301            6.7035167e-13
       261   9.9802556           1997   441            446            809            301            6.7035436e-13
       262   9.9868485           1997   441            446            809            301            6.7035661e-13
       263   9.9931598           1997   441            446            809            301            6.7035882e-13
       264   10.001679           1997   441            446            809            301            6.7036095e-13
       265   10.007908           1998   442            446            809            301            6.7036168e-13
       266   10.014168           1998   442            446            809            301            6.7036246e-13
       267   10.020177           1999   442            446            810            301            6.7036325e-13
       268   10.026105           2000   442            446            811            301            6.7036406e-13
       269   10.043218           2000   442            446            811            301            6.7036486e-13
       270   10.065474           2001   442            447            811            301            6.7036759e-13
       271   10.071717           2001   442            447            811            301            6.7037022e-13
       272   10.077827           2001   442            447            811            301            6.7037266e-13
       273   10.083684           2002   442            448            811            301            6.7037491e-13
       274   10.089428           2002   442            448            811            301            6.7037699e-13
       275   10.094984           2003   442            448            812            301            6.7037888e-13
       276   10.100361           2003   442            448            812            301            6.7038061e-13
       277   10.105692           2003   442            448            812            301            6.7038219e-13
       278   10.110968           2003   442            448            812            301            6.7038361e-13
       279   10.128194           2003   442            448            812            301            6.7038489e-13
       280   10.152155           2003   442            448            811            302            6.7038626e-13
       281   10.160343           2003   442            448            811            302            6.7038933e-13
       282   10.168398           2003   442            448            811            302            6.7039217e-13
       283   10.176242           2004   442            449            811            302            6.7039479e-13
       284   10.188244           2004   442            449            811            302            6.7039718e-13
       285   10.195734           2004   442            449            811            302            6.7040051e-13
       286   10.202963           2004   442            449            811            302            6.7040361e-13
       287   10.209982           2004   442            449            811            302            6.7040648e-13
       288   10.216769           2004   442            449            811            302            6.7040911e-13
       289   10.223329           2004   442            449            811            302            6.7041152e-13
       290   10.25351            2004   442            449            811            302            6.7041372e-13
       291   10.259782           2004   442            449            811            302            6.7041573e-13
       292   10.265815           2004   442            449            811            302            6.7041755e-13
       293   10.271705           2004   442            449            811            302            6.704192e-13 
       294   10.283888           2004   442            449            811            302            6.7042069e-13
       295   10.290334           2004   442            449            811            302            6.7042452e-13
       296   10.296679           2005   442            449            812            302            6.704282e-13 
       297   10.303014           2005   442            449            812            302            6.7043164e-13
       298   10.309278           2005   442            449            812            302            6.7043481e-13
       299   10.315476           2005   442            449            812            302            6.7043771e-13
       300   10.34679            2005   442            449            812            302            6.7044035e-13
       301   10.35293            2006   442            449            813            302            6.7044275e-13
       302   10.35898            2006   442            449            813            302            6.704449e-13 
       303   10.364971           2006   442            449            813            302            6.7044682e-13
       304   10.370848           2006   442            449            813            302            6.7044852e-13
       305   10.376634           2006   442            449            813            302            6.7045002e-13
       306   10.382386           2006   442            449            813            302            6.7045133e-13
       307   10.388092           2007   443            449            813            302            6.7045245e-13
       308   10.393701           2007   443            449            813            302            6.7045341e-13
       309   10.399225           2007   443            449            813            302            6.704542e-13 
       310   10.42894            2008   443            449            814            302            6.7045485e-13
       311   10.43439            2008   443            449            814            302            6.7045536e-13
       312   10.439763           2008   443            449            814            302            6.7045574e-13
       313   10.445099           2008   443            449            813            303            6.70456e-13  
       314   10.450284           2008   443            449            813            303            6.7045794e-13
       315   10.455402           2008   443            449            813            303            6.704597e-13 
       316   10.460498           2009   443            449            814            303            6.7046129e-13
       317   10.465531           2009   443            449            814            303            6.7046271e-13
       318   10.470518           2009   443            449            814            303            6.7046397e-13
       319   10.475445           2009   443            449            814            303            6.7046509e-13
       320   10.506991           2009   443            449            814            303            6.7046607e-13
Loop time of 10.5072 on 16 procs for 320 steps with 2009 atoms

97.5% CPU use with 16 MPI tasks x 1 OpenMP threads

MPI task timing breakdown:
Section |  min time  |  avg time  |  max time  |%varavg| %total
---------------------------------------------------------------
Pair    | 0.011782   | 0.022266   | 0.041716   |   6.2 |  0.21
Neigh   | 0.012923   | 0.028772   | 0.056717   |   8.1 |  0.27
Comm    | 2.4796     | 2.874      | 3.1149     |  10.1 | 27.35
Output  | 0.67254    | 0.67259    | 0.67267    |   0.0 |  6.40
Modify  | 5.795      | 6.0266     | 6.4191     |   6.7 | 57.36
Other   |            | 0.883      |            |       |  8.40

Nlocal:        125.562 ave         253 max          65 min
Histogram: 4 2 2 4 1 0 1 1 0 1
Nghost:        102.812 ave         189 max          52 min
Histogram: 3 3 1 2 3 2 0 0 0 2
Neighs:         396.75 ave        1063 max         143 min
Histogram: 5 1 6 0 1 1 0 1 0 1

Total # of neighbors = 6348
Ave neighs/atom = 3.159781
Neighbor list builds = 342
Dangerous builds = 11

Total wall time: 0:00:19
