LAMMPS (23 Jun 2022 - Update 4)
  using 1 OpenMP thread(s) per MPI task
package omp 0
using multi-threaded neighbor list subroutines
#-----------------------------------------------------------------------------#
#                NUFEB Simulation: Heterotrophic Biofilm Growth               #
#-----------------------------------------------------------------------------#


#-----------------------------System Settings---------------------------------#

units si                                    # using si units (m, s, kg)
atom_style      coccus                      # using nufeb coccus atom style
atom_modify     map array sort 10 0         # map array - find atoms using indices
		                            # sort every 10

boundary        pp pp ff                    # periodic boundaries in x and y
                                            # fixed boundary in z

newton          off                         # forces between local and ghost
                                            # atoms are computed in each
					     # processor without communication

processors      * * 1                       # processor grid

comm_modify     vel yes                     # communicate velocities for ghost atoms

read_data       atom_ch.in	             # read atom.in file which defines domain size
Reading data file ...
  orthogonal box = (0 0 0) to (6e-05 6e-05 6e-05)
  4 by 4 by 1 MPI processor grid
  reading atoms ...
  150 atoms
  read_data CPU = 0.022 seconds
                                            # and initial atoms


#--------------------Microbes and Functional Groups-------------------------#

group           CROSS1   type 1               # assign type 1,2 atoms to CROSS group
50 atoms in group CROSS1
group           CROSS2   type 2
50 atoms in group CROSS2
group		CHEATER  type 3
50 atoms in group CHEATER
group           dead     type 4
0 atoms in group dead

neighbor        5e-7 bin                   # setting neighbour skin distance and style

neigh_modify    check yes                  # rebuild neighbour list if any atom
                                           # had moved more than half the skin distance


#--------------------------Mesh Grid and Substrates--------------------------#

# defining grid sytle, substrate names, and grid size
grid_style      nufeb/chemostat 3 sub metab1 metab2 5e-6

# set diffusion boundary conditions and initial concentrations (liquid:kg/m3)
grid_modify     set sub      pp pp nd  1.8e-4
No /omp style for force computation currently active
grid_modify     set metab1   pp pp nd  1e-4
No /omp style for force computation currently active
grid_modify     set metab2   pp pp nd  1e-4
No /omp style for force computation currently active


#--------------------------Biological Processes-------------------------------#

# heterotrophs growth
fix growth_cross1 CROSS1 nufeb/growth/cross1 sub 3.5e-5 metab2 4e-3 metab1 growth 0.009 yield 0.6 decay 2.6e-6 metab1_exp 20

fix growth_cross2 CROSS2 nufeb/growth/cross2 sub 3.5e-5 metab1 4e-3 metab2 growth 0.009 yield 0.6 decay 2.6e-6 metab2_exp 20

fix growth_cheater CHEATER nufeb/growth/cheater sub 3.5e-5 metab1 1e-3 metab2 1e-3 growth 0.009 yield 0.6 decay 2.6e-6
# heterotrophs division, division diameter: 1.36e-6
fix div1 CROSS1 nufeb/division/coccus 1.36e-6 587
fix div2 CROSS2 nufeb/division/coccus 1.36e-6 2042
fix div3 CHEATER nufeb/division/coccus 1.36e-6 4465

fix death1 CROSS1 nufeb/death/diameter dead 5.43e-7
fix death2 CROSS2 nufeb/death/diameter dead 5.43e-7
fix death3 CHEATER nufeb/death/diameter dead 5.43e-7

#---------------------------Physical Processes--------------------------------#

pair_style  gran/hooke/history 1e-4 NULL 1e-5 NULL 0.0 0    # pairwise interaction
pair_coeff  * *                                             # between atoms

# pairwise interaction between z-wall and atoms
fix wall all wall/gran hooke/history 1e-3 NULL 1e-4 NULL 0 0 zplane 0.0 1e-04

fix vis all viscous 1e-5                                    # viscous damping force

fix grav all gravity 9.81 vector 0.0 0.0 -1.0

fix nve all nve/limit 1e-7                                  # NVE integration with
                                                            # maximum distance limit


#---------------------------Post-Physical Processes---------------------------#

fix coeff_sub all nufeb/diffusion_coeff sub ratio 0.8       # defining diffusion coeff in the biofilm
fix coeff_metab1 all nufeb/diffusion_coeff metab1 ratio 0.8    # region is 80% of the value in liquid
fix coeff_metab2 all nufeb/diffusion_coeff metab2 ratio 0.8

#---------------------------Chemical Processes---------------------------------#

fix diff_sub all nufeb/diffusion_reaction sub 1e-9        # diffusion reaction for updating
fix diff_metab1 all nufeb/diffusion_reaction metab1 4e-9     # distribusion of substrate concentration
fix diff_metab2 all nufeb/diffusion_reaction metab2 4e-9

#--------------------------Computations and Outputs----------------------------#

variable mass equal "mass(all)"                             # total mass
variable ncross1 equal "count(CROSS1)"                      # total # of CROSS1
variable ncross2 equal "count(CROSS2)"                      # total # of CROSS2
variable ncheater equal "count(CHEATER)"
variable ndead equal "count(dead)"

shell mkdir vtk_NEPS_ch                                            # dump vtk files to /vtk folder
dump du1 all vtk 10 vtk_NEPS_ch/dump*.vtu id type diameter         # require build NUFEB with vtk option
dump du2 all grid/vtk 10 vtk_NEPS_ch/dump_%_*.vti con rea den gro

#dump du3 all movie 10 movie.avi type diameter view 80 60    # dump video
#dump_modify du3 acolor 1 blue acolor 2 lightgrey framerate 10


                                                            # dump hdf5 files to /hdf5 folder
#shell mkdir hdf5                                           # require build NUFEB with hdf5 option
#dump du3 all nufeb/hdf5 10 dump.h5 id type x y z vx vy vz fx fy fz radius conc reac

thermo_style custom step cpu atoms v_ncross1 v_ncross2 v_ncheater v_ndead v_mass     # screen and log outputs
thermo 1
thermo_modify   lost ignore

#-----------------------------------Run----------------------------------------#

# issue run command, define timesteps for physical (pairdt) and chemical (diffdt) processes
run_style nufeb diffdt 1e-4 difftol 1e-6 pairdt 1e-2 pairtol 1 pairmax 1000 diffmax 5000

timestep 12000                                               # define biological timesteps (1000s)

run 320                                                    # growing biofilm for 900x1000s
Generated 0 of 6 mixed pair_coeff terms from geometric mixing rule
Last active /omp style is pair_style gran/hooke/history/omp
Neighbor list info ...
  update every 1 steps, delay 10 steps, check yes
  max neighbors/atom: 2000, page size: 100000
  master list distance cutoff = 2.49e-06
  ghost atom cutoff = 2.49e-06
  binsize = 1.245e-06, bins = 49 49 49
  1 neighbor lists, perpetual/occasional/extra = 1 0 0
  (1) pair gran/hooke/history/omp, perpetual
      attributes: half, newton off, size, history, omp
      pair build: half/size/bin/newtoff/omp
      stencil: full/bin/3d
      bin: standard
Per MPI rank memory allocation (min/avg/max) = 11.02 | 11.02 | 11.02 Mbytes
   Step          CPU          Atoms      v_ncross1      v_ncross2      v_ncheater      v_ndead         v_mass    
         0   0                    150   50             50             50             0              1.3295396e-13
         1   0.38281715           273   96             91             86             0              1.9616795e-13
         2   0.74627171           435   149            150            136            0              2.2439057e-13
         3   1.0540434            539   172            194            173            0              2.4576597e-13
         4   1.3467172            589   193            208            188            0              2.6465466e-13
         5   1.5449609            623   202            220            201            0              2.8208497e-13
         6   1.7040879            674   216            242            216            0              2.9839734e-13
         7   1.840257             709   228            249            232            0              3.1410823e-13
         8   1.9674424            744   240            259            245            0              3.2894216e-13
         9   2.0962175            783   255            270            258            0              3.4330419e-13
        10   2.2412654            815   266            278            271            0              3.5708896e-13
        11   2.3706535            840   277            281            282            0              3.7001955e-13
        12   2.4704773            878   291            287            300            0              3.8222549e-13
        13   2.5534581            899   299            289            311            0              3.9391909e-13
        14   2.635692             927   304            297            326            0              4.0505593e-13
        15   2.7173262            954   310            306            338            0              4.1566802e-13
        16   2.8039902            981   317            312            352            0              4.2563407e-13
        17   2.8773143           1007   324            316            367            0              4.3520187e-13
        18   2.9493786           1033   331            319            383            0              4.4421844e-13
        19   3.0146299           1055   338            324            393            0              4.5275114e-13
        20   3.1194816           1075   343            330            402            0              4.6090784e-13
        21   3.1708278           1097   347            334            416            0              4.6868233e-13
        22   3.218669            1112   352            335            425            0              4.7587399e-13
        23   3.2722164           1139   358            339            442            0              4.8268707e-13
        24   3.3524254           1153   363            339            451            0              4.8920966e-13
        25   3.4264282           1179   369            342            468            0              4.953874e-13 
        26   3.4966317           1207   375            345            487            0              5.0127165e-13
        27   3.5531914           1220   377            347            496            0              5.0674935e-13
        28   3.6034736           1231   381            349            501            0              5.1203838e-13
        29   3.665047            1243   384            351            508            0              5.1719982e-13
        30   3.7389263           1258   389            351            518            0              5.2223091e-13
        31   3.7933561           1272   392            354            526            0              5.267647e-13 
        32   3.8436765           1290   399            355            536            0              5.3114773e-13
        33   3.8935308           1302   401            357            544            0              5.3530968e-13
        34   3.9425034           1317   405            358            554            0              5.392963e-13 
        35   3.9920405           1327   406            362            559            0              5.4310731e-13
        36   4.0564868           1341   409            363            569            0              5.4674092e-13
        37   4.1160547           1359   413            366            580            0              5.5031788e-13
        38   4.1827195           1372   414            369            589            0              5.5378626e-13
        39   4.2252751           1387   417            370            600            0              5.571749e-13 
        40   4.3000363           1394   419            371            604            0              5.6031585e-13
        41   4.3638954           1405   422            371            612            0              5.6339637e-13
        42   4.4355349           1413   422            372            619            0              5.6643206e-13
        43   4.5151323           1424   425            373            626            0              5.6943246e-13
        44   4.6128826           1437   426            374            637            0              5.7252135e-13
        45   4.7210295           1453   430            375            648            0              5.7567799e-13
        46   4.8250696           1472   434            378            660            0              5.7900951e-13
        47   4.9305314           1483   437            378            668            0              5.8241118e-13
        48   5.0279056           1498   438            379            681            0              5.8597005e-13
        49   5.1320631           1513   440            380            693            0              5.8953304e-13
        50   5.2463229           1524   441            380            703            0              5.9316706e-13
        51   5.3477223           1539   441            380            718            0              5.9683394e-13
        52   5.4697988           1555   443            382            729            1              6.0063761e-13
        53   5.5840258           1574   443            382            748            1              6.0463156e-13
        54   5.6869464           1587   445            382            759            1              6.0879197e-13
        55   5.7829762           1598   447            382            768            1              6.1293759e-13
        56   5.87667             1617   449            383            782            3              6.1707123e-13
        57   5.9706922           1642   451            384            801            6              6.2119771e-13
        58   6.0466009           1660   451            385            816            8              6.2531974e-13
        59   6.1278947           1676   452            385            827            12             6.2932089e-13
        60   6.208512            1688   452            385            833            18             6.3326447e-13
        61   6.2674573           1703   453            385            845            20             6.3709428e-13
        62   6.3317177           1718   453            386            853            26             6.4077564e-13
        63   6.4104553           1732   453            386            867            26             6.4434949e-13
        64   6.4837376           1751   454            386            877            34             6.4791896e-13
        65   6.5866513           1773   455            386            893            39             6.5140008e-13
        66   6.6960073           1789   456            386            901            46             6.551266e-13 
        67   6.7519804           1800   456            386            905            53             6.5885358e-13
        68   6.8579299           1818   456            386            911            65             6.6240441e-13
        69   6.9872525           1837   457            386            922            72             6.6605568e-13
        70   27.226697           1847   457            386            925            79             6.6991294e-13
        71   27.42097            1863   458            386            929            90             6.7422771e-13
        72   27.613248           1885   459            386            943            97             6.7918065e-13
        73   27.813442           1900   460            386            954            100            6.8450172e-13
        74   28.016475           1920   460            387            961            112            6.902365e-13 
        75   28.197622           1942   460            388            976            118            6.9637108e-13
        76   28.344101           1964   460            388            996            120            7.0267078e-13
        77   28.498342           1990   461            388            1013           128            7.0889675e-13
        78   28.630842           2013   461            389            1033           130            7.1513164e-13
        79   28.742283           2027   461            390            1043           133            7.2121558e-13
        80   28.866931           2054   461            390            1064           139            7.2708843e-13
        81   28.967188           2077   461            391            1082           143            7.3275277e-13
        82   29.058693           2103   461            391            1104           147            7.3818429e-13
        83   29.162646           2112   461            391            1111           149            7.4338267e-13
        84   29.305209           2137   461            391            1129           156            7.4853344e-13
        85   29.456826           2161   461            391            1150           159            7.5387153e-13
        86   29.648717           2178   461            391            1166           160            7.5928498e-13
        87   29.935091           2212   461            391            1195           165            7.650615e-13 
        88   30.208895           2242   461            392            1220           169            7.7209115e-13
        89   30.478041           2260   461            392            1234           173            7.7977292e-13
        90   30.768028           2298   461            392            1269           176            7.8814697e-13
        91   31.0623             2326   461            392            1292           181            7.9722925e-13
        92   31.350897           2362   461            392            1324           185            8.0704568e-13
        93   31.583275           2400   461            393            1357           189            8.1744805e-13
        94   31.842162           2440   461            393            1395           191            8.278324e-13 
        95   32.075329           2480   461            394            1430           195            8.3851327e-13
        96   32.302547           2522   461            394            1470           197            8.4926188e-13
        97   32.542557           2565   461            394            1507           203            8.6005481e-13
        98   32.754403           2607   461            393            1546           207            8.7098544e-13
        99   32.987              2659   461            393            1594           211            8.8186992e-13
       100   33.247611           2704   461            393            1632           218            8.9279116e-13
       101   33.460125           2738   461            393            1663           221            9.0395494e-13
       102   33.738017           2789   461            392            1703           233            9.1483734e-13
       103   34.022715           2837   461            392            1744           240            9.2643356e-13
       104   34.324385           2891   461            391            1793           246            9.3841133e-13
       105   34.695251           2943   461            391            1837           254            9.5065503e-13
       106   35.044085           2995   461            391            1886           257            9.6391773e-13
       107   35.423171           3045   461            390            1930           264            9.7793013e-13
       108   35.740934           3108   461            390            1982           275            9.9291443e-13
       109   36.078166           3176   461            390            2040           285            1.0081264e-12
       110   36.448424           3231   460            390            2087           294            1.0238057e-12
       111   36.736414           3285   460            389            2134           302            1.0397852e-12
       112   37.021779           3369   460            389            2209           311            1.0556122e-12
       113   37.3126             3434   460            388            2267           319            1.0711864e-12
       114   37.568555           3486   459            388            2313           326            1.0865412e-12
       115   37.813186           3551   458            388            2372           333            1.1015705e-12
       116   38.090419           3616   457            388            2429           342            1.1161325e-12
       117   38.321378           3688   454            388            2496           350            1.1305384e-12
       118   38.594702           3757   453            388            2562           354            1.1443808e-12
       119   38.919289           3817   452            387            2619           359            1.1582767e-12
       120   39.258896           3876   451            387            2677           361            1.1722952e-12
       121   39.638338           3942   451            387            2738           366            1.1866816e-12
       122   39.99489            4014   450            387            2808           369            1.2015413e-12
       123   40.395111           4078   450            387            2870           371            1.217018e-12 
       124   40.804701           4152   449            387            2942           374            1.2339505e-12
       125   41.20979            4217   449            386            3006           376            1.2514113e-12
       126   41.601447           4297   448            386            3086           377            1.269504e-12 
       127   41.987718           4373   448            386            3161           378            1.2882563e-12
       128   42.354383           4456   448            386            3241           381            1.3070337e-12
       129   42.700663           4543   448            386            3326           383            1.3257178e-12
       130   43.044536           4617   447            386            3400           384            1.3441813e-12
       131   43.34234            4704   447            385            3487           385            1.3622612e-12
       132   43.716948           4805   447            385            3585           388            1.3799182e-12
       133   44.0795             4888   447            385            3661           395            1.3979519e-12
       134   44.433254           4977   447            385            3746           399            1.4159361e-12
       135   44.829272           5062   447            385            3823           407            1.4338779e-12
       136   45.244864           5137   447            385            3887           418            1.4519885e-12
       137   45.650902           5232   447            385            3970           430            1.4710068e-12
       138   46.084102           5314   447            385            4040           442            1.4904586e-12
       139   46.520402           5420   447            385            4127           461            1.5108871e-12
       140   46.952033           5524   447            385            4208           484            1.5325544e-12
       141   47.372766           5617   447            385            4288           497            1.5546913e-12
       142   47.787754           5724   447            385            4371           521            1.5771104e-12
       143   48.230003           5830   447            385            4461           537            1.5995815e-12
       144   48.62478            5924   447            384            4537           556            1.6217844e-12
       145   49.019952           6035   447            382            4630           576            1.6436921e-12
       146   49.396103           6144   447            382            4714           601            1.66527e-12  
       147   49.807659           6243   447            381            4791           624            1.6865425e-12
       148   50.239705           6357   447            380            4883           647            1.7084064e-12
       149   50.680663           6452   447            380            4956           669            1.7303712e-12
       150   51.204525           6576   447            380            5048           701            1.7533779e-12
       151   51.669905           6690   447            380            5129           734            1.7771704e-12
       152   52.140473           6799   447            380            5202           770            1.8018923e-12
       153   52.602791           6920   447            380            5284           809            1.8277698e-12
       154   53.06254            7060   447            380            5380           853            1.8542462e-12
       155   53.538349           7178   447            380            5442           909            1.8809245e-12
       156   53.994347           7304   447            380            5520           957            1.9079584e-12
       157   54.467968           7447   447            380            5621           999            1.9350073e-12
       158   54.988397           7576   447            380            5695           1054           1.9619499e-12
       159   55.490488           7692   447            380            5770           1095           1.9896317e-12
       160   56.025657           7839   447            380            5878           1134           2.0183197e-12
       161   56.533826           7963   447            379            5960           1177           2.0475479e-12
       162   57.032355           8110   447            379            6058           1226           2.0780022e-12
       163   57.543138           8252   447            379            6171           1255           2.1097553e-12
       164   58.08164            8400   447            379            6286           1288           2.1423167e-12
       165   58.616376           8571   447            379            6420           1325           2.1757544e-12
       166   59.152746           8708   447            379            6517           1365           2.2101131e-12
       167   59.690203           8873   447            379            6645           1402           2.2450282e-12
       168   60.224317           9041   447            379            6777           1438           2.2795391e-12
       169   60.784501           9183   447            379            6889           1468           2.3147691e-12
       170   61.386934           9337   447            379            7013           1498           2.3503464e-12
       171   61.989712           9498   447            377            7134           1540           2.3869383e-12
       172   62.591972           9699   447            377            7296           1579           2.4246924e-12
       173   63.203523           9869   447            377            7420           1625           2.4634246e-12
       174   63.829609          10032   447            377            7533           1675           2.5035386e-12
       175   64.486092          10224   447            377            7687           1713           2.5456497e-12
       176   65.105754          10412   447            377            7833           1755           2.5897488e-12
       177   65.721074          10587   447            377            7965           1798           2.6350661e-12
       178   66.322892          10788   447            377            8134           1830           2.6818266e-12
       179   66.95466           11011   446            377            8317           1871           2.7299669e-12
       180   67.625228          11203   446            377            8466           1914           2.7794479e-12
       181   68.313274          11422   446            377            8647           1952           2.8294662e-12
       182   69.033491          11651   445            377            8819           2010           2.8801643e-12
       183   69.770478          11878   445            377            9004           2052           2.9327438e-12
       184   70.526496          12105   445            377            9186           2097           2.9862522e-12
       185   71.297196          12341   445            377            9375           2144           3.0430796e-12
       186   72.084955          12579   445            377            9565           2192           3.1028472e-12
       187   72.893409          12833   445            377            9770           2241           3.1663462e-12
       188   73.707286          13109   444            376            10004          2285           3.2333892e-12
       189   74.556902          13404   444            376            10243          2341           3.3043864e-12
       190   75.501276          13693   444            376            10483          2390           3.3780282e-12
       191   76.434623          14000   444            376            10747          2433           3.4535987e-12
       192   77.453301          14318   444            376            11004          2494           3.5329685e-12
       193   78.421098          14627   444            376            11265          2542           3.6151779e-12
       194   79.506778          14979   444            376            11561          2598           3.7036901e-12
       195   80.653267          15342   443            376            11850          2673           3.7990404e-12
       196   81.879405          15711   443            376            12160          2732           3.9029307e-12
       197   83.14564           16129   443            376            12520          2790           4.0174909e-12
       198   84.556825          16570   443            376            12900          2851           4.1424648e-12
       199   86.228778          17057   443            375            13304          2935           4.2782134e-12
       200   88.326339          17571   443            375            13740          3013           4.4222046e-12
       201   90.543413          18070   443            374            14155          3098           4.5668602e-12
       202   92.932191          18576   442            374            14589          3171           4.7152156e-12
       203   95.466219          19100   441            374            15055          3230           4.861483e-12 
       204   98.022042          19618   441            374            15514          3289           5.0052086e-12
       205   100.61676          20148   441            373            15956          3378           5.1487315e-12
       206   103.23701          20662   440            372            16393          3457           5.2984733e-12
       207   105.8944           21227   439            371            16869          3548           5.4459218e-12
       208   108.58276          21821   439            371            17384          3627           5.597459e-12 
       209   111.30464          22366   439            371            17829          3727           5.7448981e-12
       210   114.13366          22912   439            370            18270          3833           5.8982821e-12
       211   116.87662          23493   439            370            18744          3940           6.055831e-12 
       212   119.64333          24077   439            365            19225          4048           6.2022102e-12
       213   122.39483          24689   437            364            19738          4150           6.3721665e-12
       214   125.17591          25359   435            361            20284          4279           6.5393904e-12
       215   127.94444          26020   432            360            20841          4387           6.7258036e-12
       216   130.69711          26716   431            360            21416          4509           6.9155076e-12
       217   133.46213          27406   429            359            21984          4634           7.0859883e-12
       218   136.20679          28073   427            359            22528          4759           7.2711768e-12
       219   138.96924          28798   426            358            23124          4890           7.440959e-12 
       220   141.82035          29532   425            356            23705          5046           7.635836e-12 
       221   144.6892           30198   424            354            24212          5208           7.8119293e-12
       222   147.47114          30991   422            351            24871          5347           8.0084467e-12
       223   150.22758          31742   419            348            25463          5512           8.2051198e-12
       224   152.99994          32492   417            341            26059          5675           8.4087517e-12
       225   155.76682          33240   412            338            26627          5863           8.5930749e-12
       226   158.54248          34060   408            335            27273          6044           8.7897633e-12
       227   161.32205          34865   400            329            27878          6258           8.9943527e-12
       228   164.11384          35591   394            323            28405          6469           9.1773259e-12
       229   166.89725          36422   390            316            29008          6708           9.3797475e-12
       230   169.77505          37175   379            311            29531          6954           9.5663773e-12
       231   172.57047          37983   370            305            30092          7216           9.7606161e-12
       232   175.38781          38822   359            295            30669          7499           9.949684e-12 
       233   178.18349          39636   348            283            31232          7773           1.0145659e-11
       234   180.99089          40368   333            277            31720          8038           1.0295204e-11
       235   183.79886          41066   320            265            32162          8319           1.0441442e-11
       236   186.60115          41898   306            244            32743          8605           1.0616484e-11
       237   189.44049          42629   278            232            33156          8963           1.0773143e-11
       238   192.30694          43371   261            222            33623          9265           1.0896218e-11
       239   195.16022          44005   244            200            34013          9548           1.1019067e-11
       240   198.145            44644   217            183            34413          9831           1.1118327e-11
       241   201.0111           45296   201            166            34787          10142          1.122081e-11 
       242   203.89702          46033   179            143            35293          10418          1.1340478e-11
       243   206.84885          46590   151            127            35604          10708          1.1395586e-11
       244   209.76037          47208   126            110            36001          10971          1.1489039e-11
       245   212.69753          47694   101            94             36216          11283          1.1518701e-11
       246   215.65146          48330   82             79             36591          11578          1.160938e-11 
       247   218.64092          48862   68             60             36881          11853          1.1649077e-11
       248   221.62513          49444   55             50             37219          12120          1.1703535e-11
       249   224.63744          49884   44             39             37414          12387          1.1715474e-11
       250   227.74515          50405   39             31             37672          12663          1.1765184e-11
       251   230.78127          50907   30             23             37906          12948          1.1794629e-11
       252   233.83576          51349   22             15             38099          13213          1.1799375e-11
       253   236.95305          51819   16             11             38267          13525          1.1826987e-11
       254   240.02226          52284   11             9              38434          13830          1.1828436e-11
       255   243.12252          52816   7              5              38661          14143          1.1845145e-11
       256   246.2598           53152   5              4              38678          14465          1.1851401e-11
       257   249.40031          53577   3              3              38798          14773          1.1845405e-11
       258   252.55943          54027   2              2              38939          15084          1.1863136e-11
       259   255.73855          54434   2              2              39049          15381          1.1861932e-11
       260   259.09056          54819   2              1              39121          15695          1.1840724e-11
       261   262.32637          55292   1              0              39306          15985          1.1862886e-11
       262   265.61059          55661   1              0              39372          16288          1.1827971e-11
       263   268.87505          56056   1              0              39501          16554          1.1851055e-11
       264   272.19988          56406   1              0              39505          16900          1.1815496e-11
       265   275.51358          56807   1              0              39619          17187          1.1816192e-11
       266   278.87449          57179   1              0              39700          17478          1.1799864e-11
       267   282.28099          57610   1              0              39816          17793          1.1791444e-11
       268   285.68971          57964   1              0              39881          18082          1.1791552e-11
       269   289.10405          58374   1              0              39977          18396          1.1806395e-11
       270   292.66506          58702   1              0              39996          18705          1.1793037e-11
       271   296.14568          59065   1              0              40051          19013          1.1769584e-11
       272   299.63302          59482   1              0              40151          19330          1.178773e-11 
       273   303.22631          59768   1              0              40111          19656          1.1747576e-11
       274   306.78423          60186   1              0              40208          19977          1.176953e-11 
       275   310.37323          60490   1              0              40230          20259          1.1744381e-11
       276   314.00958          60929   1              0              40362          20566          1.1762188e-11
       277   317.66806          61238   1              0              40319          20918          1.1752004e-11
       278   321.31573          61564   1              0              40331          21232          1.1737329e-11
       279   325.03046          61972   1              0              40431          21540          1.1757767e-11
       280   328.92791          62270   1              0              40382          21887          1.172942e-11 
       281   332.63017          62654   1              0              40434          22219          1.1717262e-11
       282   336.4096           62992   1              0              40428          22563          1.1743966e-11
       283   340.28935          63322   1              0              40414          22907          1.1739309e-11
       284   344.10382          63718   1              0              40438          23279          1.1745335e-11
       285   347.97736          64069   1              0              40466          23602          1.1722435e-11
       286   351.85541          64410   1              0              40427          23982          1.1712631e-11
       287   355.72218          64722   1              0              40324          24397          1.1719126e-11
       288   359.6572           64989   1              0              40217          24771          1.1703165e-11
       289   363.60198          65300   1              0              40107          25192          1.1713261e-11
       290   367.62725          65813   1              0              40237          25575          1.1730066e-11
       291   371.64474          66113   1              0              40139          25973          1.1704865e-11
       292   375.50333          66509   1              0              40138          26370          1.1749279e-11
       293   379.5667           66723   1              0              39920          26802          1.1713401e-11
       294   383.47186          67095   1              0              39876          27218          1.1747874e-11
       295   387.54149          67359   1              0              39680          27678          1.1731591e-11
       296   391.71567          67736   1              0              39624          28111          1.1717408e-11
       297   395.87633          68085   1              0              39483          28601          1.1731599e-11
       298   399.90878          68370   1              0              39305          29064          1.1737224e-11
       299   404.03881          68711   1              0              39186          29524          1.1728663e-11
       300   408.25675          69012   1              0              38982          30029          1.1749252e-11
       301   412.54422          69326   1              0              38819          30506          1.1752861e-11
       302   416.80121          69641   1              0              38653          30987          1.1743803e-11
       303   421.04497          69979   1              0              38489          31489          1.1748307e-11
       304   425.34585          70247   1              0              38328          31918          1.1742153e-11
       305   429.52216          70647   1              0              38282          32364          1.178695e-11 
       306   433.78221          70948   1              0              38095          32852          1.1792241e-11
       307   438.13284          71258   1              0              37953          33304          1.1781302e-11
       308   442.51999          71546   1              0              37771          33774          1.1793279e-11
       309   447.03608          71876   1              0              37627          34248          1.1788312e-11
       310   451.58051          72227   1              0              37521          34705          1.1821034e-11
       311   456.07786          72411   1              0              37256          35154          1.1782521e-11
       312   460.46492          72748   1              0              37161          35586          1.1814267e-11
       313   464.96389          73104   1              0              37125          35978          1.1850765e-11
       314   469.52456          73437   1              0              37030          36406          1.1835005e-11
       315   474.05441          73735   1              0              36901          36833          1.1836356e-11
       316   478.55481          74057   1              0              36817          37239          1.185979e-11 
       317   483.1655           74317   1              0              36679          37637          1.1864363e-11
       318   487.77976          74616   1              0              36596          38019          1.187199e-11 
       319   492.47945          74867   1              0              36454          38412          1.1857578e-11
       320   497.34576          75212   1              0              36413          38798          1.1864544e-11
Loop time of 497.346 on 16 procs for 320 steps with 75212 atoms

96.4% CPU use with 16 MPI tasks x 1 OpenMP threads

MPI task timing breakdown:
Section |  min time  |  avg time  |  max time  |%varavg| %total
---------------------------------------------------------------
Pair    | 67.181     | 106.66     | 174.74     | 294.7 | 21.45
Neigh   | 12.365     | 26.671     | 71.112     | 348.2 |  5.36
Comm    | 54.332     | 70.66      | 91.035     | 142.8 | 14.21
Output  | 22.233     | 22.233     | 22.233     |   0.0 |  4.47
Modify  | 127.46     | 248.44     | 314.84     | 339.1 | 49.95
Other   |            | 22.68      |            |       |  4.56

Nlocal:        4700.75 ave        9941 max        3187 min
Histogram: 8 4 0 2 0 0 0 0 0 2
Nghost:        3667.06 ave        6286 max        2536 min
Histogram: 6 2 2 2 0 0 2 0 1 1
Neighs:        34339.2 ave       47704 max       26520 min
Histogram: 2 3 2 4 1 1 1 0 0 2

Total # of neighbors = 549427
Ave neighs/atom = 7.3050444
Neighbor list builds = 4125
Dangerous builds = 347

Total wall time: 0:09:09
