LAMMPS (23 Jun 2022 - Update 4)
  using 1 OpenMP thread(s) per MPI task
package omp 0
using multi-threaded neighbor list subroutines
#-----------------------------------------------------------------------------#
#                NUFEB Simulation: Heterotrophic Biofilm Growth               #
#-----------------------------------------------------------------------------#


#-----------------------------System Settings---------------------------------#

units si                                    # using si units (m, s, kg)
atom_style      coccus                      # using nufeb coccus atom style
atom_modify     map array sort 10 0         # map array - find atoms using indices
		                            # sort every 10

boundary        pp pp ff                    # periodic boundaries in x and y
                                            # fixed boundary in z

newton          off                         # forces between local and ghost
                                            # atoms are computed in each
					     # processor without communication

processors      * * 1                       # processor grid

comm_modify     vel yes                     # communicate velocities for ghost atoms

read_data       atom_ch.in	             # read atom.in file which defines domain size
Reading data file ...
  orthogonal box = (0 0 0) to (6e-05 6e-05 6e-05)
  4 by 4 by 1 MPI processor grid
  reading atoms ...
  150 atoms
  read_data CPU = 0.019 seconds
                                            # and initial atoms


#--------------------Microbes and Functional Groups-------------------------#

group           CROSS1   type 1               # assign type 1,2 atoms to CROSS group
50 atoms in group CROSS1
group           CROSS2   type 2
50 atoms in group CROSS2
group		CHEATER  type 3
50 atoms in group CHEATER
group           dead     type 4
0 atoms in group dead

neighbor        5e-7 bin                   # setting neighbour skin distance and style

neigh_modify    check yes                  # rebuild neighbour list if any atom
                                           # had moved more than half the skin distance


#--------------------------Mesh Grid and Substrates--------------------------#

# defining grid sytle, substrate names, and grid size
grid_style      nufeb/chemostat 3 sub metab1 metab2 5e-6

# set diffusion boundary conditions and initial concentrations (liquid:kg/m3)
grid_modify     set sub      pp pp nd  1.8e-4
No /omp style for force computation currently active
grid_modify     set metab1   pp pp nd  1e-4
No /omp style for force computation currently active
grid_modify     set metab2   pp pp nd  1e-4
No /omp style for force computation currently active


#--------------------------Biological Processes-------------------------------#

# heterotrophs growth
fix growth_cross1 CROSS1 nufeb/growth/cross1 sub 3.5e-5 metab2 4e-3 metab1 growth 0.009 yield 0.6 decay 2.6e-6 metab1_exp 20

fix growth_cross2 CROSS2 nufeb/growth/cross2 sub 3.5e-5 metab1 4e-3 metab2 growth 0.009 yield 0.6 decay 2.6e-6 metab2_exp 20

fix growth_cheater CHEATER nufeb/growth/cheater sub 3.5e-5 metab1 1e-3 metab2 1e-3 growth 0.009 yield 0.6 decay 2.6e-6
# heterotrophs division, division diameter: 1.36e-6
fix div1 CROSS1 nufeb/division/coccus 1.36e-6 427
fix div2 CROSS2 nufeb/division/coccus 1.36e-6 1402
fix div3 CHEATER nufeb/division/coccus 1.36e-6 3025

fix death1 CROSS1 nufeb/death/diameter dead 5.43e-7
fix death2 CROSS2 nufeb/death/diameter dead 5.43e-7
fix death3 CHEATER nufeb/death/diameter dead 5.43e-7

#---------------------------Physical Processes--------------------------------#

pair_style  gran/hooke/history 1e-4 NULL 1e-5 NULL 0.0 0    # pairwise interaction
pair_coeff  * *                                             # between atoms

# pairwise interaction between z-wall and atoms
fix wall all wall/gran hooke/history 1e-3 NULL 1e-4 NULL 0 0 zplane 0.0 1e-04

fix vis all viscous 1e-5                                    # viscous damping force

fix grav all gravity 9.81 vector 0.0 0.0 -1.0

fix nve all nve/limit 1e-7                                  # NVE integration with
                                                            # maximum distance limit


#---------------------------Post-Physical Processes---------------------------#

fix coeff_sub all nufeb/diffusion_coeff sub ratio 0.8       # defining diffusion coeff in the biofilm
fix coeff_metab1 all nufeb/diffusion_coeff metab1 ratio 0.8    # region is 80% of the value in liquid
fix coeff_metab2 all nufeb/diffusion_coeff metab2 ratio 0.8

#---------------------------Chemical Processes---------------------------------#

fix diff_sub all nufeb/diffusion_reaction sub 1e-9        # diffusion reaction for updating
fix diff_metab1 all nufeb/diffusion_reaction metab1 4e-9     # distribusion of substrate concentration
fix diff_metab2 all nufeb/diffusion_reaction metab2 4e-9

#--------------------------Computations and Outputs----------------------------#

variable mass equal "mass(all)"                             # total mass
variable ncross1 equal "count(CROSS1)"                      # total # of CROSS1
variable ncross2 equal "count(CROSS2)"                      # total # of CROSS2
variable ncheater equal "count(CHEATER)"
variable ndead equal "count(dead)"

shell mkdir vtk_NEPS_ch                                            # dump vtk files to /vtk folder
dump du1 all vtk 10 vtk_NEPS_ch/dump*.vtu id type diameter         # require build NUFEB with vtk option
dump du2 all grid/vtk 10 vtk_NEPS_ch/dump_%_*.vti con rea den gro

#dump du3 all movie 10 movie.avi type diameter view 80 60    # dump video
#dump_modify du3 acolor 1 blue acolor 2 lightgrey framerate 10


                                                            # dump hdf5 files to /hdf5 folder
#shell mkdir hdf5                                           # require build NUFEB with hdf5 option
#dump du3 all nufeb/hdf5 10 dump.h5 id type x y z vx vy vz fx fy fz radius conc reac

thermo_style custom step cpu atoms v_ncross1 v_ncross2 v_ncheater v_ndead v_mass     # screen and log outputs
thermo 1
thermo_modify   lost ignore

#-----------------------------------Run----------------------------------------#

# issue run command, define timesteps for physical (pairdt) and chemical (diffdt) processes
run_style nufeb diffdt 1e-4 difftol 1e-6 pairdt 1e-2 pairtol 1 pairmax 1000 diffmax 5000

timestep 12000                                               # define biological timesteps (1000s)

run 320                                                    # growing biofilm for 900x1000s
Generated 0 of 6 mixed pair_coeff terms from geometric mixing rule
Last active /omp style is pair_style gran/hooke/history/omp
Neighbor list info ...
  update every 1 steps, delay 10 steps, check yes
  max neighbors/atom: 2000, page size: 100000
  master list distance cutoff = 2.49e-06
  ghost atom cutoff = 2.49e-06
  binsize = 1.245e-06, bins = 49 49 49
  1 neighbor lists, perpetual/occasional/extra = 1 0 0
  (1) pair gran/hooke/history/omp, perpetual
      attributes: half, newton off, size, history, omp
      pair build: half/size/bin/newtoff/omp
      stencil: full/bin/3d
      bin: standard
Per MPI rank memory allocation (min/avg/max) = 11.02 | 11.02 | 11.02 Mbytes
   Step          CPU          Atoms      v_ncross1      v_ncross2      v_ncheater      v_ndead         v_mass    
         0   0                    150   50             50             50             0              1.3295396e-13
         1   0.38442518           273   96             91             86             0              1.9616795e-13
         2   0.75845785           432   150            147            135            0              2.2403011e-13
         3   1.0803681            540   173            193            174            0              2.4528618e-13
         4   1.3698131            589   186            210            193            0              2.6442316e-13
         5   1.5757617            627   199            224            204            0              2.8200793e-13
         6   1.7158992            665   209            242            214            0              2.9874596e-13
         7   1.8751236            694   216            252            226            0              3.1486777e-13
         8   2.0062795            733   227            264            242            0              3.3037618e-13
         9   2.1100743            768   235            274            259            0              3.4492237e-13
        10   2.2303778            806   244            285            277            0              3.5863327e-13
        11   2.332581             833   254            292            287            0              3.7175078e-13
        12   2.4273708            865   262            304            299            0              3.8396871e-13
        13   2.5053443            901   272            313            316            0              3.9536586e-13
        14   2.5848791            932   281            319            332            0              4.0633592e-13
        15   2.6616681            952   284            324            344            0              4.1682626e-13
        16   2.7498819            969   291            328            350            0              4.2678429e-13
        17   2.8262445            991   294            334            363            0              4.3636133e-13
        18   2.8903105           1015   299            339            377            0              4.4520078e-13
        19   2.9718252           1032   305            341            386            0              4.5363537e-13
        20   3.042166            1061   310            350            401            0              4.6184519e-13
        21   3.1386339           1087   315            356            416            0              4.6965612e-13
        22   3.2041866           1105   319            359            427            0              4.7714952e-13
        23   3.2633779           1131   324            360            447            0              4.8430238e-13
        24   3.3334142           1147   329            364            454            0              4.9104268e-13
        25   3.4080791           1167   330            370            467            0              4.9739478e-13
        26   3.4716709           1183   335            372            476            0              5.0345878e-13
        27   3.5348817           1198   339            372            487            0              5.0926292e-13
        28   3.5980446           1222   346            377            499            0              5.1480051e-13
        29   3.6560246           1238   351            378            509            0              5.2004936e-13
        30   3.7272335           1251   353            379            519            0              5.2502177e-13
        31   3.7909979           1267   356            383            528            0              5.2974644e-13
        32   3.8473245           1280   359            385            536            0              5.3431354e-13
        33   3.9038881           1302   362            392            548            0              5.3867824e-13
        34   3.9531812           1319   364            397            558            0              5.4289582e-13
        35   4.0162881           1335   370            397            568            0              5.468549e-13 
        36   4.0863412           1349   372            399            578            0              5.5075618e-13
        37   4.130391            1360   373            400            587            0              5.5457103e-13
        38   4.2123092           1380   374            403            603            0              5.5814435e-13
        39   4.2917772           1389   376            405            608            0              5.6173662e-13
        40   13.676957           1401   377            407            617            0              5.6529308e-13
        41   13.762402           1410   378            407            625            0              5.687266e-13 
        42   13.845385           1427   378            410            639            0              5.7216665e-13
        43   13.955383           1439   380            411            648            0              5.7569529e-13
        44   14.053077           1453   382            413            658            0              5.7932534e-13
        45   14.164518           1463   383            414            666            0              5.8299125e-13
        46   14.2577             1475   383            414            678            0              5.868194e-13 
        47   14.377332           1492   384            415            693            0              5.9059997e-13
        48   14.488909           1509   385            417            707            0              5.9467596e-13
        49   14.58586            1520   385            418            717            0              5.9879102e-13
        50   14.757104           1535   386            419            730            0              6.02867e-13  
        51   14.858101           1555   390            419            746            0              6.0739732e-13
        52   15.012471           1577   390            419            768            0              6.1187736e-13
        53   15.131324           1595   391            420            784            0              6.1678013e-13
        54   15.27484            1613   392            421            799            1              6.2175265e-13
        55   15.408621           1630   392            421            815            2              6.270338e-13 
        56   15.538333           1646   393            421            830            2              6.3244842e-13
        57   15.676989           1669   396            422            848            3              6.3805033e-13
        58   15.787488           1691   396            422            867            6              6.4379626e-13
        59   15.951371           1713   397            422            884            10             6.4957886e-13
        60   27.390955           1736   398            422            902            14             6.5578743e-13
        61   27.555915           1769   398            422            929            20             6.6218469e-13
        62   27.722967           1785   398            422            938            27             6.6881447e-13
        63   27.903234           1811   399            422            958            32             6.7573869e-13
        64   28.072363           1836   399            422            979            36             6.8296118e-13
        65   28.318258           1861   399            422            1000           40             6.9046869e-13
        66   28.546747           1894   399            422            1026           47             6.9888609e-13
        67   28.765602           1926   399            423            1054           50             7.0800086e-13
        68   28.950692           1963   400            423            1080           60             7.1752072e-13
        69   29.181773           2000   400            425            1110           65             7.2729016e-13
        70   29.425375           2030   400            425            1132           73             7.3758419e-13
        71   29.632347           2070   400            425            1162           83             7.4832247e-13
        72   29.82125            2107   400            425            1190           92             7.5923313e-13
        73   29.994481           2143   400            427            1217           99             7.7017477e-13
        74   30.146194           2185   400            427            1257           101            7.8103501e-13
        75   30.298056           2222   400            427            1289           106            7.9167386e-13
        76   30.431814           2256   400            427            1319           110            8.0208265e-13
        77   30.579254           2307   400            427            1367           113            8.1218848e-13
        78   30.762228           2340   400            427            1396           117            8.2220739e-13
        79   30.91066            2388   401            427            1438           122            8.3235464e-13
        80   31.076455           2423   401            427            1470           125            8.4220408e-13
        81   31.305992           2452   401            427            1493           131            8.5190197e-13
        82   31.551979           2500   401            429            1533           137            8.6227131e-13
        83   31.828474           2557   401            430            1583           143            8.7291038e-13
        84   32.141415           2601   401            430            1624           146            8.8426084e-13
        85   32.470564           2643   401            430            1663           149            8.9641562e-13
        86   32.908419           2690   401            430            1708           151            9.0962127e-13
        87   33.203895           2743   401            430            1757           155            9.2371926e-13
        88   33.505412           2789   401            430            1795           163            9.3824034e-13
        89   33.791832           2845   401            430            1848           166            9.5317636e-13
        90   34.097854           2899   401            430            1892           176            9.6847143e-13
        91   34.346548           2957   401            430            1944           182            9.8388839e-13
        92   34.587946           3028   401            430            2008           189            9.9915495e-13
        93   34.817529           3087   401            430            2064           192            1.0142521e-12
        94   35.048513           3136   401            430            2105           200            1.029178e-12 
        95   35.278932           3192   401            430            2144           217            1.0438987e-12
        96   35.551715           3259   401            430            2206           222            1.0585999e-12
        97   35.794071           3313   401            430            2255           227            1.0735458e-12
        98   36.035844           3392   401            430            2327           234            1.0881948e-12
        99   36.357047           3451   401            429            2379           242            1.1027495e-12
       100   36.678414           3519   401            429            2440           249            1.1180834e-12
       101   37.044589           3582   401            429            2497           255            1.1335572e-12
       102   37.397743           3649   401            428            2553           267            1.1500928e-12
       103   37.761855           3728   401            428            2625           274            1.167255e-12 
       104   38.129165           3796   400            428            2684           284            1.1851054e-12
       105   38.492988           3878   400            428            2756           294            1.2038472e-12
       106   38.856147           3956   399            427            2825           305            1.2228418e-12
       107   39.192967           4027   399            426            2889           313            1.2422223e-12
       108   39.520154           4116   399            426            2970           321            1.2616609e-12
       109   39.839237           4211   398            425            3052           336            1.2810045e-12
       110   40.189592           4292   397            424            3122           349            1.3003095e-12
       111   40.488286           4391   393            424            3210           364            1.3197143e-12
       112   40.807936           4465   392            424            3273           376            1.3386543e-12
       113   41.110868           4545   391            424            3339           391            1.3574879e-12
       114   41.442694           4647   390            423            3433           401            1.3761875e-12
       115   41.808781           4730   389            423            3509           409            1.3948983e-12
       116   42.176516           4832   389            423            3600           420            1.4140736e-12
       117   42.544524           4928   389            423            3685           431            1.4334414e-12
       118   42.905906           5010   388            423            3753           446            1.4531189e-12
       119   43.27709            5097   388            423            3832           454            1.4729999e-12
       120   43.692593           5190   387            423            3916           464            1.4932371e-12
       121   44.055158           5285   387            423            4001           474            1.5139073e-12
       122   44.41488            5379   387            423            4086           483            1.5345954e-12
       123   44.758642           5476   387            423            4176           490            1.5553114e-12
       124   45.105105           5571   386            423            4266           496            1.5758819e-12
       125   45.44238            5673   384            423            4358           508            1.5962923e-12
       126   45.804412           5773   380            422            4448           523            1.6166139e-12
       127   46.127362           5871   380            422            4533           536            1.6368978e-12
       128   46.507159           5971   380            421            4625           545            1.6570969e-12
       129   46.813701           6074   379            421            4711           563            1.6775567e-12
       130   47.170882           6175   379            421            4806           569            1.697519e-12 
       131   47.521047           6282   378            421            4896           587            1.7173273e-12
       132   47.915996           6386   378            420            4991           597            1.7373321e-12
       133   48.281986           6493   378            420            5081           614            1.7577609e-12
       134   48.66342            6607   378            420            5175           634            1.7781786e-12
       135   49.036858           6708   378            420            5267           643            1.7991583e-12
       136   49.410589           6820   378            420            5361           661            1.8202245e-12
       137   49.787011           6917   378            420            5440           679            1.8415841e-12
       138   50.148558           7017   378            418            5529           692            1.8633601e-12
       139   50.503564           7124   378            418            5619           709            1.8848832e-12
       140   50.891481           7247   377            418            5727           725            1.906331e-12 
       141   51.247469           7359   377            417            5814           751            1.9277283e-12
       142   51.636384           7481   377            417            5921           766            1.9489991e-12
       143   51.981033           7594   377            417            6011           789            1.9701202e-12
       144   52.375847           7719   377            417            6102           823            1.9910203e-12
       145   52.774381           7826   377            417            6186           846            2.0126851e-12
       146   53.165434           7948   377            416            6291           864            2.0349147e-12
       147   53.554499           8079   376            416            6402           885            2.0574426e-12
       148   53.949826           8186   376            416            6482           912            2.0805282e-12
       149   54.340656           8322   376            415            6597           934            2.1048348e-12
       150   54.767646           8443   376            414            6684           969            2.1295904e-12
       151   55.158061           8563   375            414            6764           1010           2.1554529e-12
       152   55.551612           8717   375            414            6884           1044           2.1816073e-12
       153   55.949535           8846   375            413            6963           1095           2.2079036e-12
       154   56.335436           8989   375            413            7053           1148           2.2341089e-12
       155   56.726221           9124   375            412            7145           1192           2.2600449e-12
       156   57.116788           9245   373            411            7206           1255           2.2859584e-12
       157   57.510641           9391   373            411            7283           1324           2.3116867e-12
       158   57.963336           9543   371            411            7374           1387           2.338005e-12 
       159   58.373402           9689   371            411            7461           1446           2.3651713e-12
       160   58.829353           9828   369            410            7523           1526           2.3933655e-12
       161   59.24833            9993   364            409            7620           1600           2.4232985e-12
       162   59.662896          10153   364            409            7727           1653           2.4553172e-12
       163   60.074835          10311   364            407            7830           1710           2.4886187e-12
       164   60.492928          10471   362            407            7924           1778           2.5227282e-12
       165   60.913959          10659   362            407            8051           1839           2.5573726e-12
       166   61.340762          10810   362            407            8147           1894           2.5922169e-12
       167   61.787248          10981   362            407            8252           1960           2.6270339e-12
       168   62.255482          11156   361            407            8373           2015           2.6627549e-12
       169   62.707509          11351   361            404            8494           2092           2.6990611e-12
       170   63.232314          11536   361            402            8620           2153           2.7363772e-12
       171   63.689869          11720   361            401            8728           2230           2.7746173e-12
       172   64.153892          11902   361            401            8854           2286           2.8144214e-12
       173   64.620567          12099   361            401            8993           2344           2.8561525e-12
       174   65.111014          12305   361            401            9133           2410           2.8994341e-12
       175   65.590559          12527   360            401            9295           2471           2.9437583e-12
       176   66.111557          12741   359            399            9451           2532           2.9884929e-12
       177   66.619818          12939   359            399            9601           2580           3.034049e-12 
       178   67.175657          13170   359            399            9787           2625           3.0801296e-12
       179   67.740102          13376   358            399            9941           2678           3.1282747e-12
       180   68.339678          13598   358            399            10114          2727           3.1797058e-12
       181   68.896313          13831   357            398            10305          2771           3.2339246e-12
       182   69.452294          14069   355            396            10489          2829           3.2916122e-12
       183   70.023894          14348   353            395            10714          2886           3.3523083e-12
       184   70.595094          14593   353            393            10914          2933           3.4151536e-12
       185   71.215899          14853   352            390            11122          2989           3.480655e-12 
       186   71.868609          15152   351            389            11367          3045           3.547801e-12 
       187   72.545641          15447   348            387            11603          3109           3.6171925e-12
       188   73.261556          15744   347            384            11824          3189           3.6925101e-12
       189   74.007963          16058   344            383            12073          3258           3.7755882e-12
       190   74.86092           16400   343            383            12347          3327           3.8665828e-12
       191   75.710652          16782   342            381            12641          3418           3.9663302e-12
       192   76.621793          17184   340            379            12977          3488           4.0762063e-12
       193   77.552961          17588   338            376            13306          3568           4.1939238e-12
       194   78.621255          18011   338            374            13659          3640           4.3127084e-12
       195   79.825372          18488   338            373            14072          3705           4.4369188e-12
       196   81.115366          18946   337            371            14444          3794           4.5625928e-12
       197   82.557868          19428   337            368            14842          3881           4.6914312e-12
       198   84.095805          19899   337            366            15230          3966           4.817635e-12 
       199   85.697146          20359   337            366            15618          4038           4.9514619e-12
       200   87.505047          20863   337            365            16050          4111           5.0832899e-12
       201   89.370397          21368   337            364            16447          4220           5.2183266e-12
       202   91.255141          21883   337            363            16867          4316           5.3627758e-12
       203   93.210845          22450   333            363            17326          4428           5.5131762e-12
       204   95.224775          22994   332            363            17757          4542           5.6549716e-12
       205   97.292083          23517   328            361            18169          4659           5.7976926e-12
       206   99.389206          24021   328            359            18562          4772           5.9382685e-12
       207   101.55896          24591   325            358            19019          4889           6.0943623e-12
       208   103.78389          25178   325            355            19509          4989           6.2503477e-12
       209   106.03194          25813   325            354            20024          5110           6.4155949e-12
       210   108.38162          26431   322            350            20510          5249           6.587766e-12 
       211   110.70182          27043   317            345            20999          5382           6.7504675e-12
       212   113.01747          27708   315            341            21535          5517           6.9282949e-12
       213   115.39069          28352   308            338            22057          5649           7.0884093e-12
       214   117.72517          29066   306            328            22639          5793           7.2870124e-12
       215   120.06256          29757   297            323            23193          5944           7.4800563e-12
       216   122.44927          30490   292            316            23778          6104           7.6764777e-12
       217   124.81462          31238   288            304            24386          6260           7.8605979e-12
       218   127.18073          32010   282            300            24973          6455           8.0607849e-12
       219   129.54772          32736   280            294            25504          6658           8.2671223e-12
       220   132.01216          33518   269            287            26099          6863           8.4592273e-12
       221   134.44252          34341   258            275            26732          7076           8.6584255e-12
       222   136.79476          35082   248            263            27299          7272           8.85332e-12  
       223   139.17425          35850   236            247            27873          7494           9.0481155e-12
       224   141.56403          36703   228            240            28541          7694           9.2616829e-12
       225   143.9357           37541   219            226            29194          7902           9.4692707e-12
       226   146.32305          38359   207            216            29786          8150           9.6611934e-12
       227   148.71195          39151   194            206            30357          8394           9.8561193e-12
       228   151.13816          39978   184            191            30966          8637           1.0027188e-11
       229   153.55618          40785   168            176            31569          8872           1.0211681e-11
       230   156.08657          41545   151            161            32108          9125           1.0390445e-11
       231   158.51944          42281   131            139            32603          9408           1.0544086e-11
       232   160.97336          43023   114            125            33072          9712           1.0692021e-11
       233   163.44804          43775   103            112            33549          10011          1.0847764e-11
       234   165.92208          44520   89             99             34012          10320          1.0978538e-11
       235   168.39986          45199   75             89             34410          10625          1.1090604e-11
       236   170.91384          45955   72             79             34866          10938          1.1218472e-11
       237   173.44614          46558   60             66             35162          11270          1.130955e-11 
       238   176.00749          47151   54             62             35420          11615          1.1400187e-11
       239   178.57972          47822   45             50             35791          11936          1.1496759e-11
       240   181.4919           48486   32             40             36181          12233          1.1561821e-11
       241   184.08788          49017   25             34             36438          12520          1.1617116e-11
       242   186.70852          49533   20             28             36668          12817          1.1682934e-11
       243   189.34741          50111   18             23             36987          13083          1.1736168e-11
       244   192.00831          50664   12             19             37280          13353          1.177608e-11 
       245   194.69859          51157   9              16             37518          13614          1.1790654e-11
       246   197.37414          51696   5              12             37828          13851          1.1854389e-11
       247   200.08441          52207   4              10             38116          14077          1.1875459e-11
       248   202.82235          52639   4              6              38323          14306          1.1877165e-11
       249   205.55239          53210   2              5              38666          14537          1.1936647e-11
       250   208.52487          53617   2              5              38840          14770          1.1919723e-11
       251   211.28896          54048   1              4              38999          15044          1.1929859e-11
       252   214.1171           54480   1              4              39144          15331          1.1931566e-11
       253   216.94486          54950   1              3              39313          15633          1.1942519e-11
       254   219.79656          55360   0              2              39416          15942          1.1945921e-11
       255   222.65606          55809   0              1              39550          16258          1.1953271e-11
       256   225.57782          56198   0              1              39585          16612          1.194845e-11 
       257   228.53882          56595   0              1              39635          16959          1.1929404e-11
       258   231.55498          57067   0              1              39749          17317          1.1929883e-11
       259   234.57007          57415   0              1              39747          17667          1.1941074e-11
       260   237.75896          57758   0              0              39738          18020          1.1926073e-11
       261   240.84771          58202   0              0              39815          18387          1.1925112e-11
       262   243.96066          58567   0              0              39845          18722          1.189481e-11 
       263   247.09869          59026   0              0              39972          19054          1.1905698e-11
       264   250.30788          59364   0              0              39980          19384          1.1890482e-11
       265   253.49288          59715   0              0              40018          19697          1.1883695e-11
       266   256.70807          60146   0              0              40135          20011          1.1887184e-11
       267   259.9968           60468   0              0              40122          20346          1.186721e-11 
       268   263.30174          60910   0              0              40253          20657          1.1881133e-11
       269   266.61083          61214   0              0              40241          20973          1.1861537e-11
       270   270.11258          61618   0              0              40354          21264          1.1873099e-11
       271   273.49863          62000   0              0              40413          21587          1.1858278e-11
       272   276.91153          62301   0              0              40426          21875          1.1825159e-11
       273   280.36345          62585   0              0              40397          22188          1.1811141e-11
       274   283.88858          63063   0              0              40584          22479          1.1824826e-11
       275   287.43762          63370   0              0              40553          22817          1.1820166e-11
       276   291.03765          63696   0              0              40535          23161          1.1809877e-11
       277   294.62354          64048   0              0              40539          23509          1.1817693e-11
       278   298.28039          64388   0              0              40569          23819          1.1775631e-11
       279   301.97165          64764   0              0              40541          24223          1.178578e-11 
       280   305.84552          65103   0              0              40523          24580          1.1803605e-11
       281   309.61193          65436   0              0              40502          24934          1.1786788e-11
       282   313.39214          65796   0              0              40484          25312          1.1796402e-11
       283   317.22627          66172   0              0              40507          25665          1.1807636e-11
       284   321.09855          66520   0              0              40452          26068          1.1816092e-11
       285   325.00014          66855   0              0              40365          26490          1.1794104e-11
       286   328.96029          67210   0              0              40325          26885          1.1796076e-11
       287   332.9434           67429   0              0              40129          27300          1.1776693e-11
       288   336.951            67807   0              0              40078          27729          1.1776063e-11
       289   341.02657          68162   0              0              39997          28165          1.1774042e-11
       290   345.26316          68482   0              0              39841          28641          1.1781238e-11
       291   349.3742           68848   0              0              39725          29123          1.1804594e-11
       292   353.48806          69153   0              0              39596          29557          1.1802083e-11
       293   357.69324          69484   0              0              39454          30030          1.1798155e-11
       294   361.95307          69859   0              0              39364          30495          1.1809932e-11
       295   366.26222          70174   0              0              39202          30972          1.1812979e-11
       296   370.62398          70499   0              0              39028          31471          1.1818828e-11
       297   374.85523          70748   0              0              38836          31912          1.1827544e-11
       298   379.29182          71067   0              0              38652          32415          1.1818544e-11
       299   383.72027          71407   0              0              38546          32861          1.1817552e-11
       300   388.20174          71802   0              0              38485          33317          1.1841866e-11
       301   392.60569          72090   0              0              38308          33782          1.1855911e-11
       302   397.05754          72434   0              0              38181          34253          1.1870719e-11
       303   401.68679          72657   0              0              37971          34686          1.1862531e-11
       304   406.20992          73025   0              0              37851          35174          1.1884935e-11
       305   410.72194          73391   0              0              37732          35659          1.1903251e-11
       306   415.47378          73608   0              0              37549          36059          1.1879047e-11
       307   420.07408          74021   0              0              37512          36509          1.1912062e-11
       308   424.71808          74242   0              0              37321          36921          1.1904005e-11
       309   429.41168          74580   0              0              37248          37332          1.1922395e-11
       310   434.28716          74918   0              0              37172          37746          1.1949412e-11
       311   439.0517           75222   0              0              37084          38138          1.1947367e-11
       312   443.94538          75559   0              0              37028          38531          1.1940708e-11
       313   448.83233          75760   0              0              36818          38942          1.1950672e-11
       314   453.66891          76144   0              0              36824          39320          1.1965477e-11
       315   458.72147          76353   0              0              36626          39727          1.1955201e-11
       316   463.69576          76761   0              0              36657          40104          1.1981648e-11
       317   468.60138          77035   0              0              36560          40475          1.1988386e-11
       318   473.73725          77267   0              0              36410          40857          1.1973019e-11
       319   478.80957          77604   0              0              36362          41242          1.1991935e-11
       320   484.15454          77873   0              0              36286          41587          1.1993514e-11
Loop time of 484.155 on 16 procs for 320 steps with 77873 atoms

95.7% CPU use with 16 MPI tasks x 1 OpenMP threads

MPI task timing breakdown:
Section |  min time  |  avg time  |  max time  |%varavg| %total
---------------------------------------------------------------
Pair    | 91.38      | 122.35     | 168.99     | 245.9 | 25.27
Neigh   | 13.985     | 28.287     | 52.912     | 273.8 |  5.84
Comm    | 71.621     | 94.751     | 116.52     | 142.5 | 19.57
Output  | 23.048     | 23.048     | 23.049     |   0.0 |  4.76
Modify  | 114.58     | 197.84     | 256.24     | 346.7 | 40.86
Other   |            | 17.88      |            |       |  3.69

Nlocal:        4867.06 ave        7512 max        3343 min
Histogram: 5 4 2 0 0 0 0 0 1 4
Nghost:        3809.44 ave        6114 max        2597 min
Histogram: 3 5 2 2 0 0 0 0 2 2
Neighs:        35303.8 ave       44053 max       29043 min
Histogram: 4 0 1 6 1 0 0 0 0 4

Total # of neighbors = 564860
Ave neighs/atom = 7.2536052
Neighbor list builds = 4222
Dangerous builds = 385

Total wall time: 0:08:56
