LAMMPS (23 Jun 2022 - Update 4)
  using 1 OpenMP thread(s) per MPI task
package omp 0
using multi-threaded neighbor list subroutines
#-----------------------------------------------------------------------------#
#                NUFEB Simulation: Heterotrophic Biofilm Growth               #
#-----------------------------------------------------------------------------#


#-----------------------------System Settings---------------------------------#

units si                                    # using si units (m, s, kg)
atom_style      coccus                      # using nufeb coccus atom style
atom_modify     map array sort 10 0         # map array - find atoms using indices
		                            # sort every 10

boundary        pp pp ff                    # periodic boundaries in x and y
                                            # fixed boundary in z

newton          off                         # forces between local and ghost
                                            # atoms are computed in each
					     # processor without communication

processors      * * 1                       # processor grid

comm_modify     vel yes                     # communicate velocities for ghost atoms

read_data       atom_ch.in	             # read atom.in file which defines domain size
Reading data file ...
  orthogonal box = (0 0 0) to (6e-05 6e-05 6e-05)
  4 by 4 by 1 MPI processor grid
  reading atoms ...
  150 atoms
  read_data CPU = 0.023 seconds
                                            # and initial atoms


#--------------------Microbes and Functional Groups-------------------------#

group           CROSS1   type 1               # assign type 1,2 atoms to CROSS group
50 atoms in group CROSS1
group           CROSS2   type 2
50 atoms in group CROSS2
group		CHEATER  type 3
50 atoms in group CHEATER
group           dead     type 4
0 atoms in group dead

neighbor        5e-7 bin                   # setting neighbour skin distance and style

neigh_modify    check yes                  # rebuild neighbour list if any atom
                                           # had moved more than half the skin distance


#--------------------------Mesh Grid and Substrates--------------------------#

# defining grid sytle, substrate names, and grid size
grid_style      nufeb/chemostat 3 sub metab1 metab2 5e-6

# set diffusion boundary conditions and initial concentrations (liquid:kg/m3)
grid_modify     set sub      pp pp nd  1.8e-4
No /omp style for force computation currently active
grid_modify     set metab1   pp pp nd  1e-4
No /omp style for force computation currently active
grid_modify     set metab2   pp pp nd  1e-4
No /omp style for force computation currently active


#--------------------------Biological Processes-------------------------------#

# heterotrophs growth
fix growth_cross1 CROSS1 nufeb/growth/cross1 sub 3.5e-5 metab2 4e-3 metab1 growth 0.009 yield 0.6 decay 2.6e-6 metab1_exp 20

fix growth_cross2 CROSS2 nufeb/growth/cross2 sub 3.5e-5 metab1 4e-3 metab2 growth 0.009 yield 0.6 decay 2.6e-6 metab2_exp 20

fix growth_cheater CHEATER nufeb/growth/cheater sub 3.5e-5 metab1 1e-3 metab2 1e-3 growth 0.009 yield 0.6 decay 2.6e-6
# heterotrophs division, division diameter: 1.36e-6
fix div1 CROSS1 nufeb/division/coccus 1.36e-6 2219
fix div2 CROSS2 nufeb/division/coccus 1.36e-6 8570
fix div3 CHEATER nufeb/division/coccus 1.36e-6 19153

fix death1 CROSS1 nufeb/death/diameter dead 5.43e-7
fix death2 CROSS2 nufeb/death/diameter dead 5.43e-7
fix death3 CHEATER nufeb/death/diameter dead 5.43e-7

#---------------------------Physical Processes--------------------------------#

pair_style  gran/hooke/history 1e-4 NULL 1e-5 NULL 0.0 0    # pairwise interaction
pair_coeff  * *                                             # between atoms

# pairwise interaction between z-wall and atoms
fix wall all wall/gran hooke/history 1e-3 NULL 1e-4 NULL 0 0 zplane 0.0 1e-04

fix vis all viscous 1e-5                                    # viscous damping force

fix grav all gravity 9.81 vector 0.0 0.0 -1.0

fix nve all nve/limit 1e-7                                  # NVE integration with
                                                            # maximum distance limit


#---------------------------Post-Physical Processes---------------------------#

fix coeff_sub all nufeb/diffusion_coeff sub ratio 0.8       # defining diffusion coeff in the biofilm
fix coeff_metab1 all nufeb/diffusion_coeff metab1 ratio 0.8    # region is 80% of the value in liquid
fix coeff_metab2 all nufeb/diffusion_coeff metab2 ratio 0.8

#---------------------------Chemical Processes---------------------------------#

fix diff_sub all nufeb/diffusion_reaction sub 1e-9        # diffusion reaction for updating
fix diff_metab1 all nufeb/diffusion_reaction metab1 4e-9     # distribusion of substrate concentration
fix diff_metab2 all nufeb/diffusion_reaction metab2 4e-9

#--------------------------Computations and Outputs----------------------------#

variable mass equal "mass(all)"                             # total mass
variable ncross1 equal "count(CROSS1)"                      # total # of CROSS1
variable ncross2 equal "count(CROSS2)"                      # total # of CROSS2
variable ncheater equal "count(CHEATER)"
variable ndead equal "count(dead)"

shell mkdir vtk_NEPS_ch                                            # dump vtk files to /vtk folder
dump du1 all vtk 10 vtk_NEPS_ch/dump*.vtu id type diameter         # require build NUFEB with vtk option
dump du2 all grid/vtk 10 vtk_NEPS_ch/dump_%_*.vti con rea den gro

#dump du3 all movie 10 movie.avi type diameter view 80 60    # dump video
#dump_modify du3 acolor 1 blue acolor 2 lightgrey framerate 10


                                                            # dump hdf5 files to /hdf5 folder
#shell mkdir hdf5                                           # require build NUFEB with hdf5 option
#dump du3 all nufeb/hdf5 10 dump.h5 id type x y z vx vy vz fx fy fz radius conc reac

thermo_style custom step cpu atoms v_ncross1 v_ncross2 v_ncheater v_ndead v_mass     # screen and log outputs
thermo 1
thermo_modify   lost ignore

#-----------------------------------Run----------------------------------------#

# issue run command, define timesteps for physical (pairdt) and chemical (diffdt) processes
run_style nufeb diffdt 1e-4 difftol 1e-6 pairdt 1e-2 pairtol 1 pairmax 1000 diffmax 5000

timestep 12000                                               # define biological timesteps (1000s)

run 320                                                    # growing biofilm for 900x1000s
Generated 0 of 6 mixed pair_coeff terms from geometric mixing rule
Last active /omp style is pair_style gran/hooke/history/omp
Neighbor list info ...
  update every 1 steps, delay 10 steps, check yes
  max neighbors/atom: 2000, page size: 100000
  master list distance cutoff = 2.49e-06
  ghost atom cutoff = 2.49e-06
  binsize = 1.245e-06, bins = 49 49 49
  1 neighbor lists, perpetual/occasional/extra = 1 0 0
  (1) pair gran/hooke/history/omp, perpetual
      attributes: half, newton off, size, history, omp
      pair build: half/size/bin/newtoff/omp
      stencil: full/bin/3d
      bin: standard
Per MPI rank memory allocation (min/avg/max) = 11.02 | 11.02 | 11.02 Mbytes
   Step          CPU          Atoms      v_ncross1      v_ncross2      v_ncheater      v_ndead         v_mass    
         0   0                    150   50             50             50             0              1.3295396e-13
         1   0.38169836           273   96             91             86             0              1.9616795e-13
         2   0.75879397           433   148            150            135            0              2.2359431e-13
         3   1.0578889            532   169            194            169            0              2.4524692e-13
         4   1.3514549            587   181            219            187            0              2.6392556e-13
         5   1.5249431            635   200            234            201            0              2.8139109e-13
         6   1.678663             671   213            245            213            0              2.9780609e-13
         7   1.8044827            702   218            257            227            0              3.1312258e-13
         8   1.9149911            729   223            267            239            0              3.2776072e-13
         9   2.0287046            770   233            283            254            0              3.4156116e-13
        10   2.1516328            799   239            292            268            0              3.5487884e-13
        11   2.2406862            829   247            302            280            0              3.6727048e-13
        12   2.3197914            867   257            314            296            0              3.7914471e-13
        13   2.4124345            892   265            320            307            0              3.9052942e-13
        14   2.4912836            917   271            330            316            0              4.0139789e-13
        15   2.5653389            949   280            338            331            0              4.1177533e-13
        16   2.6391893            972   283            347            342            0              4.2158315e-13
        17   2.7161071            996   287            353            356            0              4.3089373e-13
        18   2.8039143           1018   294            358            366            0              4.3983821e-13
        19   2.8926278           1045   300            361            384            0              4.4830329e-13
        20   2.9770226           1061   303            363            395            0              4.5633865e-13
        21   3.0514155           1089   305            367            417            0              4.6420533e-13
        22   3.1266354           1106   308            373            425            0              4.7175528e-13
        23   3.2209975           1128   312            379            437            0              4.7902701e-13
        24   3.3076176           1150   316            386            448            0              4.8621648e-13
        25   3.382878            1169   318            392            459            0              4.9314087e-13
        26   3.4573763           1187   319            392            476            0              4.9969121e-13
        27   3.5140781           1201   321            392            488            0              5.0609978e-13
        28   3.6134288           1228   327            394            507            0              5.1218205e-13
        29   3.6982941           1244   328            396            520            0              5.1810856e-13
        30   3.8126344           1256   330            399            527            0              5.2385037e-13
        31   3.9218572           1269   332            401            536            0              5.2954681e-13
        32   4.0368857           1290   336            403            551            0              5.3523069e-13
        33   4.1477069           1311   339            406            566            0              5.4100718e-13
        34   4.2300605           1332   341            406            585            0              5.4674647e-13
        35   4.3518311           1345   344            407            594            0              5.5230377e-13
        36   4.4557976           1363   345            409            609            0              5.5802459e-13
        37   4.5409638           1383   349            412            622            0              5.6362863e-13
        38   4.6329969           1403   353            414            636            0              5.6913746e-13
        39   4.711738            1423   355            416            652            0              5.7454187e-13
        40   4.8088085           1443   356            417            670            0              5.7977043e-13
        41   4.8899597           1457   357            419            681            0              5.8482865e-13
        42   4.9777969           1475   360            420            695            0              5.8975844e-13
        43   5.0498591           1492   360            420            712            0              5.9468947e-13
        44   5.1708879           1513   361            422            730            0              5.9940466e-13
        45   5.2564917           1526   361            422            743            0              6.0441489e-13
        46   5.3485155           1539   363            422            754            0              6.0925461e-13
        47   5.4490611           1556   364            423            769            0              6.1402183e-13
        48   5.5770045           1582   366            424            792            0              6.1889257e-13
        49   5.7098011           1596   367            426            803            0              6.2391501e-13
        50   5.8276369           1615   367            426            822            0              6.2918679e-13
        51   5.9155379           1634   367            427            840            0              6.3435729e-13
        52   6.0224418           1650   368            427            855            0              6.3941554e-13
        53   6.131766            1672   368            427            877            0              6.4454751e-13
        54   6.2736645           1698   369            427            902            0              6.4971893e-13
        55   6.4168495           1712   369            427            915            1              6.5519851e-13
        56   6.5319303           1734   370            428            934            2              6.6091065e-13
        57   6.6855572           1748   370            428            946            4              6.6665498e-13
        58   6.8964796           1769   373            428            963            5              6.7264994e-13
        59   7.107704            1791   374            428            982            7              6.7900462e-13
        60   7.3165731           1817   374            429            1002           12             6.8589019e-13
        61   7.5281327           1838   374            430            1016           18             6.9309901e-13
        62   7.7267578           1873   374            430            1048           21             7.0077718e-13
        63   7.9247822           1906   375            430            1075           26             7.0879184e-13
        64   8.1058629           1934   376            430            1097           31             7.1701777e-13
        65   8.2969226           1966   378            431            1118           39             7.2546489e-13
        66   8.4617345           1994   378            431            1131           54             7.3414502e-13
        67   8.633286            2031   378            432            1158           63             7.4269683e-13
        68   8.7847942           2068   379            432            1185           72             7.5119269e-13
        69   8.9327657           2094   379            432            1203           80             7.596569e-13 
        70   9.0793783           2125   379            432            1219           95             7.6788046e-13
        71   9.2117561           2164   379            432            1251           102            7.7576714e-13
        72   9.3222679           2192   381            432            1271           108            7.8350921e-13
        73   9.4184368           2229   382            433            1300           114            7.9096368e-13
        74   9.5400862           2264   383            433            1329           119            7.98061e-13  
        75   9.7180126           2287   384            433            1346           124            8.05009e-13  
        76   9.8478635           2313   384            433            1364           132            8.1241187e-13
        77   10.038151           2340   384            434            1383           139            8.1946695e-13
        78   10.280404           2378   385            434            1412           147            8.2688285e-13
        79   10.558424           2406   385            434            1431           156            8.3509024e-13
        80   10.818818           2447   385            434            1466           162            8.4392239e-13
        81   11.094747           2486   386            435            1498           167            8.5320946e-13
        82   11.368582           2522   386            435            1529           172            8.6301162e-13
        83   11.679691           2567   386            434            1570           177            8.732866e-13 
        84   11.967807           2603   386            433            1598           186            8.8438722e-13
        85   12.228645           2653   386            433            1637           197            8.9592818e-13
        86   12.505133           2695   387            433            1673           202            9.0768215e-13
        87   12.725722           2749   387            433            1717           212            9.1948818e-13
        88   12.943831           2797   387            434            1761           215            9.3118066e-13
        89   13.15088            2849   387            433            1802           227            9.4286368e-13
        90   13.376525           2900   387            433            1847           233            9.5439876e-13
        91   13.580185           2945   387            432            1887           239            9.6598086e-13
        92   13.832938           2992   387            432            1928           245            9.7735319e-13
        93   14.092558           3057   387            432            1986           252            9.8909015e-13
        94   14.385428           3102   387            432            2024           259            1.0010246e-12
        95   14.727809           3155   387            432            2073           263            1.0133634e-12
        96   15.083056           3215   387            431            2126           271            1.0264824e-12
        97   15.433068           3271   387            431            2176           277            1.0406495e-12
        98   15.768088           3332   387            431            2231           283            1.0551851e-12
        99   16.071377           3394   387            431            2290           286            1.0701627e-12
       100   16.363997           3460   387            430            2353           290            1.0853091e-12
       101   16.647549           3534   388            430            2426           290            1.100393e-12 
       102   16.926194           3594   388            430            2483           293            1.1153751e-12
       103   17.186629           3670   388            428            2557           297            1.1302406e-12
       104   17.443801           3731   388            427            2614           302            1.1448259e-12
       105   17.716734           3800   387            427            2681           305            1.1592868e-12
       106   17.998253           3868   387            427            2745           309            1.1737586e-12
       107   18.321239           3935   387            427            2810           311            1.1882458e-12
       108   18.692205           4003   387            427            2873           316            1.2030836e-12
       109   19.062027           4071   387            427            2936           321            1.2188134e-12
       110   19.456834           4150   386            426            3008           330            1.2352508e-12
       111   19.836553           4230   386            426            3081           337            1.2524164e-12
       112   20.220291           4298   385            425            3144           344            1.2704632e-12
       113   20.600933           4382   385            425            3219           353            1.2892239e-12
       114   20.987123           4468   385            425            3298           360            1.3083286e-12
       115   21.332134           4548   385            425            3361           377            1.3275718e-12
       116   21.671              4636   385            425            3437           389            1.3465778e-12
       117   21.989744           4731   385            424            3522           400            1.365435e-12 
       118   22.283297           4815   385            424            3594           412            1.3839006e-12
       119   22.575688           4897   385            424            3659           429            1.4017895e-12
       120   22.969963           4986   384            424            3736           442            1.4193376e-12
       121   23.34711            5075   382            424            3806           463            1.4376916e-12
       122   23.728891           5186   382            424            3901           479            1.4561086e-12
       123   24.129852           5272   382            424            3976           490            1.474717e-12 
       124   24.533277           5364   382            424            4051           507            1.4944453e-12
       125   24.950161           5459   382            424            4139           514            1.5150083e-12
       126   25.369642           5543   382            423            4215           523            1.5364529e-12
       127   25.777517           5631   381            423            4293           534            1.5586778e-12
       128   26.168394           5730   379            423            4378           550            1.5809713e-12
       129   26.55816            5830   379            423            4466           562            1.6029481e-12
       130   26.968529           5916   379            423            4542           572            1.6246003e-12
       131   27.364493           6021   379            423            4632           587            1.6458474e-12
       132   27.75856            6130   379            423            4733           595            1.667018e-12 
       133   28.180745           6234   379            423            4807           625            1.6880761e-12
       134   28.599558           6340   379            423            4896           642            1.7097719e-12
       135   29.038987           6439   379            423            4980           657            1.7318803e-12
       136   29.47167            6544   379            423            5073           669            1.7552858e-12
       137   29.907698           6643   378            423            5147           695            1.7797968e-12
       138   30.345543           6784   378            422            5270           714            1.8054745e-12
       139   30.782648           6899   378            422            5356           743            1.8317772e-12
       140   31.252776           7029   377            422            5468           762            1.858744e-12 
       141   31.686432           7143   377            421            5546           799            1.8857518e-12
       142   32.156962           7259   377            420            5641           821            1.9124604e-12
       143   32.599336           7388   377            418            5735           858            1.9390556e-12
       144   33.045913           7518   377            418            5827           896            1.9656292e-12
       145   33.509601           7649   377            418            5939           915            1.992078e-12 
       146   33.99119            7779   377            417            6030           955            2.018591e-12 
       147   34.472921           7897   377            417            6123           980            2.0459588e-12
       148   34.980026           8042   377            417            6240           1008           2.0746588e-12
       149   35.481165           8194   377            416            6352           1049           2.1048418e-12
       150   36.003199           8344   377            415            6464           1088           2.1363045e-12
       151   36.521119           8492   377            415            6568           1132           2.168838e-12 
       152   37.011058           8642   377            415            6676           1174           2.2022503e-12
       153   37.525544           8808   377            415            6806           1210           2.2366533e-12
       154   38.055238           8964   377            414            6919           1254           2.2711371e-12
       155   38.602265           9095   377            414            7009           1295           2.3062154e-12
       156   39.147426           9274   377            414            7146           1337           2.341393e-12 
       157   39.682238           9453   377            413            7278           1385           2.377405e-12 
       158   40.273659           9637   377            412            7417           1431           2.4136291e-12
       159   40.852089           9809   377            412            7552           1468           2.4519117e-12
       160   41.49876            9981   377            411            7677           1516           2.4909877e-12
       161   42.095964          10161   377            410            7810           1564           2.5319582e-12
       162   42.736198          10349   377            409            7956           1607           2.5738873e-12
       163   43.372163          10542   377            409            8095           1661           2.6171187e-12
       164   44.001892          10757   377            409            8253           1718           2.6618589e-12
       165   44.607397          10953   377            409            8404           1763           2.707591e-12 
       166   45.244874          11161   377            409            8565           1810           2.7543624e-12
       167   45.904844          11375   377            408            8726           1864           2.8013553e-12
       168   46.590323          11597   377            408            8916           1896           2.8496182e-12
       169   47.293238          11806   377            408            9077           1944           2.8997124e-12
       170   48.08836           12034   377            408            9254           1995           2.9516967e-12
       171   48.832312          12277   377            408            9439           2053           3.0067546e-12
       172   49.542717          12554   377            407            9669           2101           3.0647206e-12
       173   50.319171          12803   377            406            9865           2155           3.12542e-12  
       174   51.083505          13070   377            406            10075          2212           3.1892073e-12
       175   51.922194          13358   377            406            10301          2274           3.2565082e-12
       176   52.801404          13634   377            406            10502          2349           3.3259357e-12
       177   53.716003          13954   377            406            10763          2408           3.3981152e-12
       178   54.588099          14237   377            406            10978          2476           3.475223e-12 
       179   55.461903          14564   377            405            11241          2541           3.5569961e-12
       180   56.471937          14897   376            405            11517          2599           3.6465126e-12
       181   57.579101          15245   376            404            11815          2650           3.7428343e-12
       182   58.940854          15628   375            404            12129          2720           3.8463642e-12
       183   60.407389          16022   375            404            12474          2769           3.9604187e-12
       184   61.961781          16432   375            404            12804          2849           4.0814339e-12
       185   63.689478          16874   374            404            13172          2924           4.2073615e-12
       186   65.608104          17340   374            404            13559          3003           4.3343084e-12
       187   67.623927          17803   374            403            13936          3090           4.4625277e-12
       188   69.779785          18280   374            403            14331          3172           4.5949476e-12
       189   72.167857          18770   374            402            14749          3245           4.7305834e-12
       190   74.668123          19215   374            401            15125          3315           4.8659701e-12
       191   77.204223          19703   374            400            15537          3392           4.9965829e-12
       192   79.74018           20201   374            397            15973          3457           5.1345906e-12
       193   82.271823          20792   373            397            16492          3530           5.2930628e-12
       194   84.87927           21300   373            396            16910          3621           5.4434604e-12
       195   87.507286          21848   373            396            17355          3724           5.5851933e-12
       196   90.149416          22371   373            394            17779          3825           5.7341225e-12
       197   92.83159           23015   373            392            18313          3937           5.8923861e-12
       198   95.572167          23611   373            392            18813          4033           6.053778e-12 
       199   98.30584           24196   372            392            19315          4117           6.2166728e-12
       200   101.14788          24824   371            392            19848          4213           6.3791541e-12
       201   103.91655          25484   370            391            20412          4311           6.5614531e-12
       202   106.73859          26118   370            391            20937          4420           6.7276861e-12
       203   109.54355          26735   368            389            21448          4530           6.9023221e-12
       204   112.32866          27412   366            388            22016          4642           7.0721948e-12
       205   115.11028          28081   364            385            22559          4773           7.2474288e-12
       206   117.9012           28765   363            384            23098          4920           7.4420571e-12
       207   120.68552          29534   363            379            23722          5070           7.6405477e-12
       208   123.46358          30353   362            379            24387          5225           7.8628529e-12
       209   126.23924          31064   360            376            24954          5374           8.0470065e-12
       210   129.10258          31761   355            375            25479          5552           8.2490974e-12
       211   131.88499          32609   353            363            26164          5729           8.4576475e-12
       212   134.68747          33362   352            356            26725          5929           8.6642131e-12
       213   137.46852          34181   349            351            27340          6141           8.8644927e-12
       214   140.2574           34978   344            344            27898          6392           9.0579195e-12
       215   143.05075          35703   336            342            28397          6628           9.24392e-12  
       216   145.84003          36570   329            333            28993          6915           9.4725827e-12
       217   148.63655          37377   324            324            29521          7208           9.6525987e-12
       218   151.46004          38218   312            310            30074          7522           9.8441334e-12
       219   154.26749          38958   305            301            30550          7802           1.001853e-11 
       220   157.16448          39778   293            288            31058          8139           1.0209406e-11
       221   159.97558          40555   283            271            31536          8465           1.0386658e-11
       222   162.82679          41302   272            257            32014          8759           1.0544675e-11
       223   165.66767          42047   260            243            32487          9057           1.0682984e-11
       224   168.51843          42713   243            229            32904          9337           1.0815798e-11
       225   171.39297          43442   223            211            33346          9662           1.0956593e-11
       226   174.27685          44094   204            187            33730          9973           1.1063478e-11
       227   177.1483           44796   187            171            34198          10240          1.1167514e-11
       228   180.04424          45409   160            156            34629          10464          1.1268104e-11
       229   182.96761          46032   137            146            35068          10681          1.1367958e-11
       230   186.02709          46605   122            124            35506          10853          1.1415069e-11
       231   188.99729          47146   104            104            35866          11072          1.1499274e-11
       232   191.963            47796   90             80             36336          11290          1.1573984e-11
       233   194.97906          48324   70             65             36691          11498          1.1599415e-11
       234   198.00393          48930   54             53             37130          11693          1.1682475e-11
       235   201.01778          49393   39             39             37388          11927          1.1690937e-11
       236   204.02527          49884   30             32             37663          12159          1.1735917e-11
       237   207.04753          50360   22             22             37868          12448          1.1747053e-11
       238   210.11483          50855   20             20             38078          12737          1.1787332e-11
       239   213.20654          51372   18             13             38274          13067          1.1800194e-11
       240   216.4152           51855   13             11             38478          13353          1.1812882e-11
       241   219.51901          52247   11             8              38547          13681          1.1818648e-11
       242   222.59374          52743   7              5              38735          13996          1.1849558e-11
       243   225.7047           53140   7              5              38801          14327          1.1841535e-11
       244   228.8926           53604   4              5              38924          14671          1.1849226e-11
       245   232.05743          53977   2              5              38986          14984          1.1831516e-11
       246   235.26602          54531   2              2              39208          15319          1.1866215e-11
       247   238.5113           54887   1              2              39253          15631          1.1863948e-11
       248   241.77522          55206   1              2              39235          15968          1.1833124e-11
       249   245.00054          55549   1              1              39254          16293          1.1826815e-11
       250   248.40828          56043   0              1              39445          16597          1.1820108e-11
       251   251.70198          56448   0              1              39539          16908          1.180613e-11 
       252   255.01192          56853   0              1              39623          17229          1.1826179e-11
       253   258.41126          57132   0              1              39618          17513          1.1794057e-11
       254   261.77524          57599   0              1              39794          17804          1.1812017e-11
       255   265.18788          57940   0              1              39819          18120          1.1804587e-11
       256   268.57027          58447   0              1              40043          18403          1.1843777e-11
       257   272.00601          58758   0              1              40080          18677          1.1805636e-11
       258   275.4802           59000   0              1              39989          19010          1.176166e-11 
       259   278.98176          59374   0              1              40059          19314          1.1759376e-11
       260   282.67829          59766   0              1              40174          19591          1.1763713e-11
       261   286.19041          60148   0              1              40245          19902          1.1759713e-11
       262   289.74965          60515   0              1              40305          20209          1.1756404e-11
       263   293.36587          60881   0              1              40380          20500          1.1757117e-11
       264   297.0193           61243   0              1              40451          20791          1.1730787e-11
       265   300.66488          61567   0              1              40425          21141          1.1738856e-11
       266   304.34415          61899   0              1              40453          21445          1.1727122e-11
       267   308.05787          62302   0              1              40513          21788          1.1744755e-11
       268   311.80337          62695   0              1              40567          22127          1.1742218e-11
       269   315.55443          63009   0              1              40579          22429          1.1742668e-11
       270   319.53062          63302   0              1              40507          22794          1.1718179e-11
       271   323.34883          63691   0              1              40543          23147          1.1721193e-11
       272   327.17461          64059   0              1              40526          23532          1.1729747e-11
       273   331.09022          64419   0              1              40519          23899          1.1741151e-11
       274   335.01203          64750   0              1              40447          24302          1.1734886e-11
       275   338.99701          65037   0              1              40335          24701          1.1707784e-11
       276   342.97451          65397   0              1              40266          25130          1.1716796e-11
       277   346.95158          65731   0              1              40206          25524          1.1711542e-11
       278   350.8253           66157   0              1              40232          25924          1.1732171e-11
       279   354.82407          66441   0              1              40078          26362          1.1731217e-11
       280   358.90313          66778   0              1              40014          26763          1.1735391e-11
       281   362.9142           67101   0              1              39860          27240          1.1743348e-11
       282   367.06941          67399   0              1              39697          27701          1.1735448e-11
       283   371.21725          67715   0              1              39556          28158          1.1738309e-11
       284   375.3965           68039   0              1              39409          28629          1.1704162e-11
       285   379.59812          68353   0              1              39227          29125          1.1727292e-11
       286   383.64771          68622   0              1              39022          29599          1.1726429e-11
       287   387.75474          68990   0              1              38889          30100          1.1735109e-11
       288   392.00041          69337   0              1              38769          30567          1.1739489e-11
       289   396.31713          69585   0              1              38520          31064          1.1722976e-11
       290   400.6596           69994   0              1              38421          31572          1.1747741e-11
       291   404.88028          70302   0              1              38266          32035          1.177536e-11 
       292   409.15525          70581   0              1              38073          32507          1.1772677e-11
       293   413.4456           70863   0              1              37895          32967          1.1763877e-11
       294   417.75044          71241   0              1              37820          33420          1.1773583e-11
       295   422.05488          71622   0              1              37798          33823          1.1811231e-11
       296   426.43238          71844   0              1              37567          34276          1.1796766e-11
       297   430.72541          72170   0              1              37447          34722          1.1813527e-11
       298   435.10236          72460   0              1              37332          35127          1.181176e-11 
       299   439.53422          72857   0              1              37319          35537          1.1841152e-11
       300   444.15199          73168   0              1              37189          35978          1.1838938e-11
       301   448.53819          73447   0              1              37051          36395          1.1861791e-11
       302   452.9997           73753   0              1              36931          36821          1.1868842e-11
       303   457.50983          74032   0              1              36840          37191          1.1854889e-11
       304   461.99754          74392   0              1              36808          37583          1.1881807e-11
       305   466.53181          74672   0              1              36707          37964          1.1876357e-11
       306   471.01246          74980   0              1              36605          38374          1.1894781e-11
       307   475.62659          75307   0              1              36564          38742          1.1890208e-11
       308   480.21217          75588   0              1              36472          39115          1.1911413e-11
       309   484.87             75893   0              1              36410          39482          1.1933452e-11
       310   489.75596          76178   0              1              36324          39853          1.194316e-11 
       311   494.53787          76487   0              1              36252          40234          1.193435e-11 
       312   499.33442          76861   0              1              36272          40588          1.1961554e-11
       313   504.1623           77144   0              1              36207          40936          1.1971639e-11
       314   508.98336          77393   0              1              36121          41271          1.1968013e-11
       315   513.80861          77604   0              1              35991          41612          1.1969275e-11
       316   518.65914          77988   0              1              36073          41914          1.1997297e-11
       317   523.57723          78223   0              1              35971          42251          1.1982945e-11
       318   528.49008          78593   0              1              35973          42619          1.1988872e-11
       319   533.46528          78891   0              1              35966          42924          1.2019366e-11
       320   538.65292          79207   0              1              35972          43234          1.2039371e-11
Loop time of 538.653 on 16 procs for 320 steps with 79207 atoms

98.1% CPU use with 16 MPI tasks x 1 OpenMP threads

MPI task timing breakdown:
Section |  min time  |  avg time  |  max time  |%varavg| %total
---------------------------------------------------------------
Pair    | 87.783     | 129.51     | 207.29     | 301.3 | 24.04
Neigh   | 14.873     | 32.407     | 79.304     | 341.5 |  6.02
Comm    | 59.457     | 78.238     | 105.23     | 157.0 | 14.52
Output  | 2.3297     | 2.3299     | 2.3313     |   0.0 |  0.43
Modify  | 134.31     | 273.28     | 347.18     | 368.2 | 50.73
Other   |            | 22.88      |            |       |  4.25

Nlocal:        4950.44 ave        9674 max        3349 min
Histogram: 8 1 3 2 0 0 0 0 0 2
Nghost:        3904.56 ave        6727 max        2722 min
Histogram: 7 2 1 2 0 0 2 0 0 2
Neighs:        38182.2 ave       50956 max       29439 min
Histogram: 2 0 5 1 4 2 0 0 0 2

Total # of neighbors = 610915
Ave neighs/atom = 7.7128915
Neighbor list builds = 4517
Dangerous builds = 383

Total wall time: 0:09:26
