LAMMPS (23 Jun 2022 - Update 4)
  using 1 OpenMP thread(s) per MPI task
package omp 0
using multi-threaded neighbor list subroutines
#-----------------------------------------------------------------------------#
#                NUFEB Simulation: Heterotrophic Biofilm Growth               #
#-----------------------------------------------------------------------------#


#-----------------------------System Settings---------------------------------#

units si                                    # using si units (m, s, kg)
atom_style      coccus                      # using nufeb coccus atom style
atom_modify     map array sort 10 0         # map array - find atoms using indices
		                            # sort every 10

boundary        pp pp ff                    # periodic boundaries in x and y
                                            # fixed boundary in z

newton          off                         # forces between local and ghost
                                            # atoms are computed in each
					     # processor without communication

processors      * * 1                       # processor grid

comm_modify     vel yes                     # communicate velocities for ghost atoms

read_data       atom_ch.in	             # read atom.in file which defines domain size
Reading data file ...
  orthogonal box = (0 0 0) to (6e-05 6e-05 6e-05)
  4 by 4 by 1 MPI processor grid
  reading atoms ...
  150 atoms
  read_data CPU = 0.017 seconds
                                            # and initial atoms


#--------------------Microbes and Functional Groups-------------------------#

group           CROSS1   type 1               # assign type 1,2 atoms to CROSS group
50 atoms in group CROSS1
group           CROSS2   type 2
50 atoms in group CROSS2
group		CHEATER  type 3
50 atoms in group CHEATER
group           dead     type 4
0 atoms in group dead

neighbor        5e-7 bin                   # setting neighbour skin distance and style

neigh_modify    check yes                  # rebuild neighbour list if any atom
                                           # had moved more than half the skin distance


#--------------------------Mesh Grid and Substrates--------------------------#

# defining grid sytle, substrate names, and grid size
grid_style      nufeb/chemostat 3 sub metab1 metab2 5e-6

# set diffusion boundary conditions and initial concentrations (liquid:kg/m3)
grid_modify     set sub      pp pp nd  1.8e-4
No /omp style for force computation currently active
grid_modify     set metab1   pp pp nd  1e-4
No /omp style for force computation currently active
grid_modify     set metab2   pp pp nd  1e-4
No /omp style for force computation currently active


#--------------------------Biological Processes-------------------------------#

# heterotrophs growth
fix growth_cross1 CROSS1 nufeb/growth/cross1 sub 3.5e-5 metab2 4e-3 metab1 growth 0.009 yield 0.6 decay 2.6e-6 metab1_exp 20

fix growth_cross2 CROSS2 nufeb/growth/cross2 sub 3.5e-5 metab1 4e-3 metab2 growth 0.009 yield 0.6 decay 2.6e-6 metab2_exp 20

fix growth_cheater CHEATER nufeb/growth/cheater sub 3.5e-5 metab1 1e-3 metab2 1e-3 growth 0.009 yield 0.6 decay 2.6e-6
# heterotrophs division, division diameter: 1.36e-6
fix div1 CROSS1 nufeb/division/coccus 1.36e-6 2039
fix div2 CROSS2 nufeb/division/coccus 1.36e-6 7850
fix div3 CHEATER nufeb/division/coccus 1.36e-6 17533

fix death1 CROSS1 nufeb/death/diameter dead 5.43e-7
fix death2 CROSS2 nufeb/death/diameter dead 5.43e-7
fix death3 CHEATER nufeb/death/diameter dead 5.43e-7

#---------------------------Physical Processes--------------------------------#

pair_style  gran/hooke/history 1e-4 NULL 1e-5 NULL 0.0 0    # pairwise interaction
pair_coeff  * *                                             # between atoms

# pairwise interaction between z-wall and atoms
fix wall all wall/gran hooke/history 1e-3 NULL 1e-4 NULL 0 0 zplane 0.0 1e-04

fix vis all viscous 1e-5                                    # viscous damping force

fix grav all gravity 9.81 vector 0.0 0.0 -1.0

fix nve all nve/limit 1e-7                                  # NVE integration with
                                                            # maximum distance limit


#---------------------------Post-Physical Processes---------------------------#

fix coeff_sub all nufeb/diffusion_coeff sub ratio 0.8       # defining diffusion coeff in the biofilm
fix coeff_metab1 all nufeb/diffusion_coeff metab1 ratio 0.8    # region is 80% of the value in liquid
fix coeff_metab2 all nufeb/diffusion_coeff metab2 ratio 0.8

#---------------------------Chemical Processes---------------------------------#

fix diff_sub all nufeb/diffusion_reaction sub 1e-9        # diffusion reaction for updating
fix diff_metab1 all nufeb/diffusion_reaction metab1 4e-9     # distribusion of substrate concentration
fix diff_metab2 all nufeb/diffusion_reaction metab2 4e-9

#--------------------------Computations and Outputs----------------------------#

variable mass equal "mass(all)"                             # total mass
variable ncross1 equal "count(CROSS1)"                      # total # of CROSS1
variable ncross2 equal "count(CROSS2)"                      # total # of CROSS2
variable ncheater equal "count(CHEATER)"
variable ndead equal "count(dead)"

shell mkdir vtk_NEPS_ch                                            # dump vtk files to /vtk folder
dump du1 all vtk 10 vtk_NEPS_ch/dump*.vtu id type diameter         # require build NUFEB with vtk option
dump du2 all grid/vtk 10 vtk_NEPS_ch/dump_%_*.vti con rea den gro

#dump du3 all movie 10 movie.avi type diameter view 80 60    # dump video
#dump_modify du3 acolor 1 blue acolor 2 lightgrey framerate 10


                                                            # dump hdf5 files to /hdf5 folder
#shell mkdir hdf5                                           # require build NUFEB with hdf5 option
#dump du3 all nufeb/hdf5 10 dump.h5 id type x y z vx vy vz fx fy fz radius conc reac

thermo_style custom step cpu atoms v_ncross1 v_ncross2 v_ncheater v_ndead v_mass     # screen and log outputs
thermo 1
thermo_modify   lost ignore

#-----------------------------------Run----------------------------------------#

# issue run command, define timesteps for physical (pairdt) and chemical (diffdt) processes
run_style nufeb diffdt 1e-4 difftol 1e-6 pairdt 1e-2 pairtol 1 pairmax 1000 diffmax 5000

timestep 12000                                               # define biological timesteps (1000s)

run 320                                                    # growing biofilm for 900x1000s
Generated 0 of 6 mixed pair_coeff terms from geometric mixing rule
Last active /omp style is pair_style gran/hooke/history/omp
Neighbor list info ...
  update every 1 steps, delay 10 steps, check yes
  max neighbors/atom: 2000, page size: 100000
  master list distance cutoff = 2.49e-06
  ghost atom cutoff = 2.49e-06
  binsize = 1.245e-06, bins = 49 49 49
  1 neighbor lists, perpetual/occasional/extra = 1 0 0
  (1) pair gran/hooke/history/omp, perpetual
      attributes: half, newton off, size, history, omp
      pair build: half/size/bin/newtoff/omp
      stencil: full/bin/3d
      bin: standard
Per MPI rank memory allocation (min/avg/max) = 11.02 | 11.02 | 11.02 Mbytes
   Step          CPU          Atoms      v_ncross1      v_ncross2      v_ncheater      v_ndead         v_mass    
         0   0                    150   50             50             50             0              1.3295396e-13
         1   0.38593013           273   96             91             86             0              1.9616795e-13
         2   0.76369947           434   150            150            134            0              2.2384682e-13
         3   1.0644981            545   174            204            167            0              2.4491532e-13
         4   1.3552566            586   188            215            183            0              2.6332705e-13
         5   1.5437725            612   192            223            197            0              2.8038888e-13
         6   1.6808654            656   209            237            210            0              2.9611461e-13
         7   1.8534477            696   223            254            219            0              3.1109217e-13
         8   1.9754274            727   233            264            230            0              3.2523781e-13
         9   2.088178             762   244            278            240            0              3.3854754e-13
        10   2.8502819            793   254            287            252            0              3.5117922e-13
        11   2.9503252            823   263            296            264            0              3.6320855e-13
        12   3.0343357            850   270            304            276            0              3.746691e-13 
        13   3.1139965            876   278            313            285            0              3.8543678e-13
        14   3.1894796            903   287            319            297            0              3.9576192e-13
        15   3.2599668            930   293            326            311            0              4.0564473e-13
        16   3.3520279            950   295            334            321            0              4.150392e-13 
        17   3.4422059            978   306            338            334            0              4.2404022e-13
        18   3.5175308           1002   311            343            348            0              4.3258017e-13
        19   3.5907469           1028   318            349            361            0              4.4067581e-13
        20   3.6823138           1044   322            354            368            0              4.4850939e-13
        21   3.7410522           1072   325            361            386            0              4.5585195e-13
        22   3.8071051           1093   330            367            396            0              4.6295693e-13
        23   3.8759191           1115   333            371            411            0              4.6973407e-13
        24   3.9408383           1137   336            375            426            0              4.7619281e-13
        25   4.003423            1155   344            378            433            0              4.8233031e-13
        26   4.0672621           1167   346            379            442            0              4.881811e-13 
        27   4.1263423           1182   348            384            450            0              4.9381391e-13
        28   4.1866271           1201   357            385            459            0              4.991684e-13 
        29   4.2600779           1221   363            388            470            0              5.0431456e-13
        30   4.3495461           1234   364            391            479            0              5.0942453e-13
        31   4.4059139           1249   367            397            485            0              5.1440186e-13
        32   4.4734088           1263   369            397            497            0              5.1918019e-13
        33   4.5518486           1277   372            401            504            0              5.2380235e-13
        34   4.6063537           1297   376            401            520            0              5.2834266e-13
        35   4.6978993           1305   377            403            525            0              5.3271586e-13
        36   4.7850052           1321   378            404            539            0              5.3708961e-13
        37   4.9060053           1336   378            406            552            0              5.4159094e-13
        38   5.0081997           1353   380            406            567            0              5.4626995e-13
        39   5.1495197           1365   382            406            577            0              5.509077e-13 
        40   5.2982995           1383   385            408            590            0              5.558412e-13 
        41   5.4494882           1395   385            408            602            0              5.6105163e-13
        42   5.5973945           1421   388            411            622            0              5.6662445e-13
        43   5.7459079           1440   389            413            638            0              5.7237069e-13
        44   5.9722766           1458   389            413            656            0              5.7842517e-13
        45   6.2480689           1477   390            413            674            0              5.8487359e-13
        46   6.4317312           1492   391            413            688            0              5.9147568e-13
        47   6.5823218           1512   391            415            706            0              5.9843206e-13
        48   6.7622853           1545   391            415            739            0              6.0554144e-13
        49   6.963724            1562   391            415            756            0              6.1303665e-13
        50   7.1301045           1591   393            417            781            0              6.2093762e-13
        51   7.2875268           1614   393            417            804            0              6.2882174e-13
        52   7.5035322           1637   393            418            826            0              6.3680643e-13
        53   7.7134644           1665   393            419            853            0              6.4527581e-13
        54   7.8674677           1698   394            420            883            1              6.5409572e-13
        55   8.0643605           1723   394            420            908            1              6.6290286e-13
        56   8.222392            1751   394            420            936            1              6.7189797e-13
        57   8.4232377           1783   394            422            965            2              6.8094243e-13
        58   8.6220748           1824   394            425            1002           3              6.9035781e-13
        59   8.8132028           1861   396            425            1031           9              6.9990947e-13
        60   9.1002336           1888   396            425            1054           13             7.0975386e-13
        61   9.3244754           1925   396            426            1083           20             7.2076169e-13
        62   9.5764595           1970   397            426            1125           22             7.3189771e-13
        63   9.8570675           2008   397            426            1157           28             7.4356911e-13
        64   10.12746            2048   397            426            1193           32             7.5610618e-13
        65   10.378954           2098   397            426            1238           37             7.6925479e-13
        66   10.655838           2144   399            427            1264           54             7.8291762e-13
        67   10.888724           2181   399            427            1297           58             7.9714899e-13
        68   11.136227           2240   399            427            1344           70             8.115982e-13 
        69   11.365429           2272   399            427            1366           80             8.2626755e-13
        70   11.625127           2335   399            428            1420           88             8.4101954e-13
        71   11.855541           2398   399            428            1473           98             8.5593506e-13
        72   12.065029           2446   400            428            1510           108            8.7090866e-13
        73   12.250275           2502   400            428            1561           113            8.8571867e-13
        74   12.41582            2565   400            428            1621           116            9.0018158e-13
        75   12.606568           2605   400            428            1652           125            9.1413258e-13
        76   12.767235           2659   400            428            1699           132            9.2790371e-13
        77   12.958783           2715   400            428            1750           137            9.4113201e-13
        78   13.159113           2757   400            428            1783           146            9.5430218e-13
        79   13.417292           2808   400            428            1831           149            9.6720673e-13
        80   13.690854           2861   400            429            1878           154            9.8038016e-13
        81   13.97278            2915   400            429            1929           157            9.9359781e-13
        82   14.243894           2965   400            429            1973           163            1.0069627e-12
        83   14.560934           3024   400            429            2029           166            1.0205782e-12
        84   14.84676            3075   400            429            2075           171            1.0345772e-12
        85   15.185881           3127   400            429            2124           174            1.0489321e-12
        86   15.474476           3186   400            429            2179           178            1.0637949e-12
        87   15.788577           3234   400            429            2223           182            1.0786584e-12
        88   16.110575           3286   400            429            2268           189            1.0937759e-12
        89   16.428138           3337   400            429            2316           192            1.1093745e-12
        90   16.729362           3407   400            430            2376           201            1.1250177e-12
        91   17.051468           3469   400            430            2431           208            1.1406459e-12
        92   17.339856           3560   400            430            2518           212            1.1565635e-12
        93   17.643091           3609   400            429            2562           218            1.1724738e-12
        94   17.950478           3664   400            429            2612           223            1.1884888e-12
        95   18.257427           3757   400            429            2698           230            1.20486e-12  
        96   18.567895           3822   400            428            2756           238            1.221048e-12 
        97   18.904016           3886   400            428            2814           244            1.2373544e-12
        98   19.238593           3945   399            428            2867           251            1.2541153e-12
        99   19.618804           4040   399            428            2954           259            1.2712181e-12
       100   20.023076           4118   399            428            3025           266            1.2891024e-12
       101   20.396554           4191   399            428            3092           272            1.3075533e-12
       102   20.78603            4278   398            428            3174           278            1.3264074e-12
       103   21.171339           4378   397            427            3262           292            1.3462357e-12
       104   21.55599            4464   396            427            3340           301            1.3663018e-12
       105   21.943722           4555   394            426            3420           315            1.3867603e-12
       106   22.310433           4640   394            426            3501           319            1.407748e-12 
       107   22.669605           4726   394            425            3581           326            1.4287427e-12
       108   23.041361           4836   394            424            3677           341            1.4497512e-12
       109   23.372547           4952   392            424            3787           349            1.4708214e-12
       110   23.734334           5040   390            424            3862           364            1.4914341e-12
       111   24.055363           5143   389            424            3955           375            1.5117994e-12
       112   24.37383            5245   386            423            4051           385            1.5317677e-12
       113   24.70211            5338   386            423            4136           393            1.5512778e-12
       114   25.04122            5437   381            423            4232           401            1.5706342e-12
       115   25.439308           5523   381            423            4310           409            1.5898262e-12
       116   25.821349           5638   381            422            4415           420            1.6093783e-12
       117   26.215925           5731   379            419            4501           432            1.6289976e-12
       118   26.619149           5825   379            418            4591           437            1.6488426e-12
       119   27.017563           5946   379            418            4707           442            1.6695344e-12
       120   27.441549           6047   378            418            4801           450            1.6906002e-12
       121   27.846023           6142   378            416            4887           461            1.7119973e-12
       122   28.239467           6256   377            415            4996           468            1.7344201e-12
       123   28.637046           6380   377            414            5112           477            1.7569164e-12
       124   29.042644           6501   377            413            5211           500            1.7795997e-12
       125   29.446042           6603   377            412            5305           509            1.8022588e-12
       126   29.816035           6704   377            411            5394           522            1.8248211e-12
       127   30.178888           6827   375            411            5507           534            1.8469209e-12
       128   30.545977           6944   373            410            5613           548            1.8688559e-12
       129   30.891666           7057   370            409            5704           574            1.8903975e-12
       130   31.26875            7168   367            408            5801           592            1.911367e-12 
       131   31.639325           7290   366            408            5906           610            1.9320566e-12
       132   32.032976           7394   364            408            5992           630            1.9528252e-12
       133   32.439859           7528   363            407            6103           655            1.9733634e-12
       134   32.865441           7629   361            406            6185           677            1.9943321e-12
       135   33.26522            7741   361            405            6270           705            2.0160581e-12
       136   33.674126           7862   361            405            6360           736            2.0380767e-12
       137   34.088843           7984   361            404            6462           757            2.0609698e-12
       138   34.492789           8125   361            404            6570           790            2.0843691e-12
       139   34.905227           8258   361            404            6673           820            2.1086669e-12
       140   35.344197           8372   360            403            6748           861            2.133558e-12 
       141   35.748575           8496   360            403            6845           888            2.1586059e-12
       142   36.160566           8637   360            402            6952           923            2.184008e-12 
       143   36.577057           8769   360            402            7045           962            2.2093264e-12
       144   37.001299           8911   359            402            7151           999            2.2341664e-12
       145   37.416081           9035   359            401            7228           1047           2.2587011e-12
       146   37.849098           9166   359            398            7305           1104           2.2830373e-12
       147   38.27446            9298   357            396            7403           1142           2.3071812e-12
       148   38.714885           9450   356            396            7507           1191           2.3312956e-12
       149   39.168729           9594   355            394            7611           1234           2.3560844e-12
       150   39.651084           9737   355            393            7711           1278           2.3810483e-12
       151   40.103729           9870   355            392            7794           1329           2.4069074e-12
       152   40.565635          10030   355            392            7898           1385           2.4340464e-12
       153   41.010054          10179   355            391            7997           1436           2.4620566e-12
       154   41.453015          10320   354            391            8092           1483           2.4910717e-12
       155   41.901947          10467   354            390            8165           1558           2.5208233e-12
       156   42.359523          10615   354            389            8245           1627           2.5509973e-12
       157   42.821055          10789   352            389            8354           1694           2.5815853e-12
       158   43.276627          10945   352            389            8457           1747           2.611985e-12 
       159   43.730942          11086   351            389            8545           1801           2.642218e-12 
       160   44.261388          11257   351            388            8644           1874           2.672166e-12 
       161   44.735062          11429   350            388            8750           1941           2.7020912e-12
       162   45.226856          11583   349            388            8815           2031           2.7324676e-12
       163   45.707267          11736   347            387            8902           2100           2.7634473e-12
       164   46.190447          11918   347            386            9034           2151           2.7953615e-12
       165   46.697389          12109   346            386            9147           2230           2.8287818e-12
       166   47.185977          12261   346            385            9230           2300           2.8642009e-12
       167   47.682745          12455   346            384            9370           2355           2.9015937e-12
       168   48.193961          12666   345            383            9519           2419           2.9400893e-12
       169   48.697629          12850   343            382            9632           2493           2.9798505e-12
       170   49.26703           13041   343            378            9750           2570           3.020303e-12 
       171   49.80537           13242   341            378            9864           2659           3.0609528e-12
       172   50.339996          13434   341            378            9963           2752           3.1016824e-12
       173   50.89769           13639   340            378            10094          2827           3.1429005e-12
       174   51.460176          13854   340            378            10223          2913           3.1854915e-12
       175   52.027959          14061   337            377            10340          3007           3.2292622e-12
       176   52.622724          14267   336            376            10450          3105           3.274447e-12 
       177   53.210238          14471   336            376            10560          3199           3.3216658e-12
       178   53.828523          14722   335            375            10727          3285           3.3716844e-12
       179   54.425152          14982   333            374            10882          3393           3.4238865e-12
       180   55.100161          15243   332            374            11051          3486           3.4780376e-12
       181   55.718048          15472   331            372            11190          3579           3.5336767e-12
       182   56.383556          15760   331            368            11401          3660           3.5910424e-12
       183   57.09083           16027   328            366            11594          3739           3.6501318e-12
       184   57.814458          16307   325            363            11807          3812           3.7115675e-12
       185   58.551445          16598   322            362            12020          3894           3.7756394e-12
       186   59.282745          16857   321            362            12214          3960           3.8431941e-12
       187   60.008176          17180   321            361            12467          4031           3.9146378e-12
       188   60.775806          17490   319            361            12704          4106           3.9890454e-12
       189   61.587621          17826   319            358            12977          4172           4.0675565e-12
       190   62.539061          18178   316            355            13260          4247           4.1501445e-12
       191   63.425438          18544   313            353            13558          4320           4.236084e-12 
       192   64.325238          18910   313            351            13844          4402           4.3292081e-12
       193   65.315354          19312   310            348            14151          4503           4.4285419e-12
       194   66.331728          19713   307            345            14487          4574           4.5368831e-12
       195   67.436603          20149   303            343            14848          4655           4.6551734e-12
       196   68.609042          20622   300            341            15237          4744           4.7838551e-12
       197   69.912742          21163   296            335            15707          4825           4.921223e-12 
       198   71.353411          21678   296            331            16153          4898           5.0687417e-12
       199   72.891479          22225   292            327            16617          4989           5.2257325e-12
       200   74.596059          22788   290            322            17098          5078           5.3910557e-12
       201   76.438773          23411   287            320            17646          5158           5.5721069e-12
       202   78.581158          24069   282            314            18216          5257           5.7612449e-12
       203   80.833781          24758   279            310            18803          5366           5.9585497e-12
       204   83.121754          25450   276            305            19408          5461           6.1581347e-12
       205   85.468294          26207   273            301            20062          5571           6.3729696e-12
       206   87.873227          26960   266            296            20678          5720           6.5883353e-12
       207   90.348183          27731   263            293            21311          5864           6.808282e-12 
       208   92.862875          28513   257            285            21960          6011           7.0336248e-12
       209   95.427367          29235   245            280            22573          6137           7.2342758e-12
       210   98.145085          30036   240            269            23250          6277           7.4526704e-12
       211   100.78251          30843   236            261            23922          6424           7.6700581e-12
       212   103.4359           31615   230            256            24558          6571           7.8718707e-12
       213   106.11034          32438   224            252            25234          6728           8.0947015e-12
       214   108.77602          33260   214            245            25889          6912           8.3200021e-12
       215   111.43553          34140   210            228            26587          7115           8.5619901e-12
       216   114.13259          34951   198            217            27211          7325           8.775803e-12 
       217   116.83375          35888   188            207            27949          7544           8.9958779e-12
       218   119.55651          36713   177            197            28583          7756           9.218563e-12 
       219   122.26107          37594   169            189            29261          7975           9.4411712e-12
       220   125.08809          38505   156            179            29984          8186           9.6676688e-12
       221   127.84642          39383   146            166            30675          8396           9.8734428e-12
       222   130.61967          40252   135            152            31323          8642           1.0071599e-11
       223   133.37512          41136   117            135            31997          8887           1.0275672e-11
       224   136.14672          41980   105            125            32628          9122           1.0469106e-11
       225   138.90591          42879   94             105            33283          9397           1.064829e-11 
       226   141.67092          43649   82             90             33800          9677           1.0806004e-11
       227   144.49065          44502   73             73             34380          9976           1.097326e-11 
       228   147.32295          45268   59             65             34887          10257          1.1112953e-11
       229   150.15836          45972   42             54             35319          10557          1.1237061e-11
       230   153.11018          46818   33             46             35847          10892          1.1390851e-11
       231   155.99971          47498   27             38             36261          11172          1.149593e-11 
       232   158.87896          48232   22             33             36681          11496          1.1610109e-11
       233   161.78585          48860   13             24             36998          11825          1.1698465e-11
       234   164.69355          49542   12             15             37369          12146          1.1780967e-11
       235   167.62612          50214   9              10             37672          12523          1.1869639e-11
       236   170.63669          50807   7              6              37948          12846          1.1908809e-11
       237   173.65754          51410   5              4              38181          13220          1.1991403e-11
       238   176.69232          51933   3              3              38358          13569          1.2026883e-11
       239   179.73301          52532   2              2              38583          13945          1.2056389e-11
       240   182.96318          53124   2              0              38793          14329          1.2079627e-11
       241   186.06634          53681   2              0              38944          14735          1.2113845e-11
       242   189.21598          54012   2              0              38884          15126          1.2122509e-11
       243   192.37987          54500   2              0              38953          15545          1.2131674e-11
       244   195.56902          55009   2              0              39058          15949          1.2131352e-11
       245   198.77917          55459   2              0              39123          16334          1.2134981e-11
       246   202.04178          55954   1              0              39246          16707          1.2119459e-11
       247   205.30864          56367   1              0              39304          17062          1.2136242e-11
       248   208.62048          56682   1              0              39314          17367          1.210128e-11 
       249   211.97177          57170   1              0              39505          17664          1.2119773e-11
       250   215.47197          57587   1              0              39657          17929          1.2090194e-11
       251   218.87676          58022   1              0              39835          18186          1.2092487e-11
       252   222.33108          58390   1              0              39921          18468          1.2049313e-11
       253   225.81346          58845   1              0              40077          18767          1.2079398e-11
       254   229.28433          59236   1              0              40199          19036          1.2073536e-11
       255   232.8252           59542   1              0              40265          19276          1.2041691e-11
       256   236.36768          60094   1              0              40535          19558          1.2046481e-11
       257   239.97627          60455   1              0              40606          19848          1.203472e-11 
       258   243.58536          60789   1              0              40621          20167          1.2005791e-11
       259   247.23064          61133   1              0              40650          20482          1.1999944e-11
       260   251.07441          61615   1              0              40825          20789          1.2014981e-11
       261   254.81063          62034   1              0              40914          21119          1.2012585e-11
       262   258.57438          62341   1              0              40869          21471          1.1978679e-11
       263   262.3669           62696   1              0              40874          21821          1.1968065e-11
       264   266.16052          63049   1              0              40883          22165          1.1964927e-11
       265   269.99727          63449   1              0              40920          22528          1.1970294e-11
       266   273.84705          63810   1              0              40904          22905          1.1952288e-11
       267   277.7508           64178   1              0              40920          23257          1.1937095e-11
       268   281.6733           64533   1              0              40940          23592          1.1931198e-11
       269   285.61824          64959   1              0              41029          23929          1.1937033e-11
       270   289.74534          65283   1              0              41018          24264          1.1940793e-11
       271   293.72466          65586   1              0              40979          24606          1.1895786e-11
       272   297.78456          65974   1              0              41009          24964          1.1896401e-11
       273   301.90256          66278   1              0              40950          25327          1.1896531e-11
       274   306.05193          66670   1              0              40996          25673          1.1884192e-11
       275   310.23155          66977   1              0              40949          26027          1.1882505e-11
       276   314.39883          67372   1              0              40980          26391          1.1886994e-11
       277   318.64319          67780   1              0              41013          26766          1.1894112e-11
       278   322.92668          68099   1              0              40964          27134          1.1877108e-11
       279   327.28281          68372   1              0              40848          27523          1.1868365e-11
       280   331.79164          68713   1              0              40798          27914          1.1866401e-11
       281   336.20034          69093   1              0              40765          28327          1.186835e-11 
       282   340.53627          69465   1              0              40714          28750          1.1881694e-11
       283   345.0357           69715   1              0              40533          29181          1.1853737e-11
       284   349.56968          70080   1              0              40444          29635          1.1853706e-11
       285   354.0099           70345   1              0              40254          30090          1.1869102e-11
       286   358.5882           70744   1              0              40189          30554          1.1862463e-11
       287   363.2141           71032   1              0              39996          31035          1.1851434e-11
       288   367.87264          71376   1              0              39844          31531          1.1849129e-11
       289   372.42859          71739   1              0              39706          32032          1.1885027e-11
       290   377.24535          72010   1              0              39515          32494          1.1883513e-11
       291   381.87514          72340   1              0              39319          33020          1.187457e-11 
       292   386.59412          72698   1              0              39184          33513          1.1876663e-11
       293   391.34547          73025   1              0              39015          34009          1.1897427e-11
       294   396.13797          73356   1              0              38865          34490          1.189412e-11 
       295   401.07473          73639   1              0              38633          35005          1.191122e-11 
       296   405.99258          73965   1              0              38465          35499          1.1912627e-11
       297   411.01257          74281   1              0              38289          35991          1.1904493e-11
       298   415.9099           74594   1              0              38151          36442          1.1924963e-11
       299   420.88191          74913   1              0              37971          36941          1.1931488e-11
       300   426.03618          75184   1              0              37752          37431          1.1934446e-11
       301   431.0566           75520   1              0              37666          37853          1.1938496e-11
       302   436.14632          75870   1              0              37552          38317          1.1967649e-11
       303   441.34703          76116   1              0              37316          38799          1.1960973e-11
       304   446.69305          76494   1              0              37268          39225          1.1960381e-11
       305   451.83546          76782   1              0              37114          39667          1.197868e-11 
       306   457.06645          77063   1              0              36942          40120          1.1984923e-11
       307   462.28893          77424   1              0              36910          40513          1.2014733e-11
       308   467.65007          77676   1              0              36738          40937          1.20093e-11  
       309   472.9998           78073   1              0              36722          41350          1.2049877e-11
       310   478.62889          78353   1              0              36589          41763          1.2038223e-11
       311   484.25106          78593   1              0              36473          42119          1.2007487e-11
       312   489.75224          78961   1              0              36458          42502          1.2041815e-11
       313   495.2578           79191   1              0              36350          42840          1.2047577e-11
       314   500.85142          79535   1              0              36340          43194          1.208874e-11 
       315   506.49381          79857   1              0              36295          43561          1.2096836e-11
       316   512.16564          80140   1              0              36251          43888          1.2089527e-11
       317   517.86001          80472   1              0              36243          44228          1.2097809e-11
       318   523.59565          80749   1              0              36178          44570          1.2115933e-11
       319   529.36052          81082   1              0              36158          44923          1.2148459e-11
       320   535.37695          81358   1              0              36058          45299          1.2144939e-11
Loop time of 535.377 on 16 procs for 320 steps with 81358 atoms

97.5% CPU use with 16 MPI tasks x 1 OpenMP threads

MPI task timing breakdown:
Section |  min time  |  avg time  |  max time  |%varavg| %total
---------------------------------------------------------------
Pair    | 100.34     | 131.96     | 189.82     | 233.4 | 24.65
Neigh   | 15.628     | 30.467     | 69.156     | 302.0 |  5.69
Comm    | 91.376     | 106.92     | 124.05     |  94.9 | 19.97
Output  | 3.0401     | 3.0526     | 3.0535     |   0.2 |  0.57
Modify  | 140.05     | 239.78     | 290.18     | 292.4 | 44.79
Other   |            | 23.21      |            |       |  4.33

Nlocal:        5084.88 ave       10045 max        3403 min
Histogram: 8 1 3 1 0 0 1 1 0 1
Nghost:        3978.75 ave        5561 max        2726 min
Histogram: 2 3 1 3 0 2 0 3 0 2
Neighs:        35983.7 ave       45458 max       30095 min
Histogram: 3 2 3 1 3 1 0 0 1 2

Total # of neighbors = 575739
Ave neighs/atom = 7.076612
Neighbor list builds = 4225
Dangerous builds = 369

Total wall time: 0:09:23
