LAMMPS (23 Jun 2022 - Update 4)
  using 1 OpenMP thread(s) per MPI task
package omp 0
using multi-threaded neighbor list subroutines
#-----------------------------------------------------------------------------#
#                NUFEB Simulation: Heterotrophic Biofilm Growth               #
#-----------------------------------------------------------------------------#


#-----------------------------System Settings---------------------------------#

units si                                    # using si units (m, s, kg)
atom_style      coccus                      # using nufeb coccus atom style
atom_modify     map array sort 10 0         # map array - find atoms using indices
		                            # sort every 10

boundary        pp pp ff                    # periodic boundaries in x and y
                                            # fixed boundary in z

newton          off                         # forces between local and ghost
                                            # atoms are computed in each
					     # processor without communication

processors      * * 1                       # processor grid

comm_modify     vel yes                     # communicate velocities for ghost atoms

read_data       atom_ch.in	             # read atom.in file which defines domain size
Reading data file ...
  orthogonal box = (0 0 0) to (6e-05 6e-05 6e-05)
  4 by 4 by 1 MPI processor grid
  reading atoms ...
  150 atoms
  read_data CPU = 0.012 seconds
                                            # and initial atoms


#--------------------Microbes and Functional Groups-------------------------#

group           CROSS1   type 1               # assign type 1,2 atoms to CROSS group
50 atoms in group CROSS1
group           CROSS2   type 2
50 atoms in group CROSS2
group		CHEATER  type 3
50 atoms in group CHEATER
group           dead     type 4
0 atoms in group dead

neighbor        5e-7 bin                   # setting neighbour skin distance and style

neigh_modify    check yes                  # rebuild neighbour list if any atom
                                           # had moved more than half the skin distance


#--------------------------Mesh Grid and Substrates--------------------------#

# defining grid sytle, substrate names, and grid size
grid_style      nufeb/chemostat 3 sub metab1 metab2 5e-6

# set diffusion boundary conditions and initial concentrations (liquid:kg/m3)
grid_modify     set sub      pp pp nd  1.8e-4
No /omp style for force computation currently active
grid_modify     set metab1   pp pp nd  1e-4
No /omp style for force computation currently active
grid_modify     set metab2   pp pp nd  1e-4
No /omp style for force computation currently active


#--------------------------Biological Processes-------------------------------#

# heterotrophs growth
fix growth_cross1 CROSS1 nufeb/growth/cross1 sub 3.5e-5 metab2 4e-3 metab1 growth 0.009 yield 0.6 decay 2.6e-6 metab1_exp 20

fix growth_cross2 CROSS2 nufeb/growth/cross2 sub 3.5e-5 metab1 4e-3 metab2 growth 0.009 yield 0.6 decay 2.6e-6 metab2_exp 20

fix growth_cheater CHEATER nufeb/growth/cheater sub 3.5e-5 metab1 1e-3 metab2 1e-3 growth 0.009 yield 0.6 decay 2.6e-6
# heterotrophs division, division diameter: 1.36e-6
fix div1 CROSS1 nufeb/division/coccus 1.36e-6 1192
fix div2 CROSS2 nufeb/division/coccus 1.36e-6 4462
fix div3 CHEATER nufeb/division/coccus 1.36e-6 9910

fix death1 CROSS1 nufeb/death/diameter dead 5.43e-7
fix death2 CROSS2 nufeb/death/diameter dead 5.43e-7
fix death3 CHEATER nufeb/death/diameter dead 5.43e-7

#---------------------------Physical Processes--------------------------------#

pair_style  gran/hooke/history 1e-4 NULL 1e-5 NULL 0.0 0    # pairwise interaction
pair_coeff  * *                                             # between atoms

# pairwise interaction between z-wall and atoms
fix wall all wall/gran hooke/history 1e-3 NULL 1e-4 NULL 0 0 zplane 0.0 1e-04

fix vis all viscous 1e-5                                    # viscous damping force

fix grav all gravity 9.81 vector 0.0 0.0 -1.0

fix nve all nve/limit 1e-7                                  # NVE integration with
                                                            # maximum distance limit


#---------------------------Post-Physical Processes---------------------------#

fix coeff_sub all nufeb/diffusion_coeff sub ratio 0.8       # defining diffusion coeff in the biofilm
fix coeff_metab1 all nufeb/diffusion_coeff metab1 ratio 0.8    # region is 80% of the value in liquid
fix coeff_metab2 all nufeb/diffusion_coeff metab2 ratio 0.8

#---------------------------Chemical Processes---------------------------------#

fix diff_sub all nufeb/diffusion_reaction sub 1e-9        # diffusion reaction for updating
fix diff_metab1 all nufeb/diffusion_reaction metab1 4e-9     # distribusion of substrate concentration
fix diff_metab2 all nufeb/diffusion_reaction metab2 4e-9

#--------------------------Computations and Outputs----------------------------#

variable mass equal "mass(all)"                             # total mass
variable ncross1 equal "count(CROSS1)"                      # total # of CROSS1
variable ncross2 equal "count(CROSS2)"                      # total # of CROSS2
variable ncheater equal "count(CHEATER)"
variable ndead equal "count(dead)"

shell mkdir vtk_NEPS_ch                                            # dump vtk files to /vtk folder
dump du1 all vtk 10 vtk_NEPS_ch/dump*.vtu id type diameter         # require build NUFEB with vtk option
dump du2 all grid/vtk 10 vtk_NEPS_ch/dump_%_*.vti con rea den gro

#dump du3 all movie 10 movie.avi type diameter view 80 60    # dump video
#dump_modify du3 acolor 1 blue acolor 2 lightgrey framerate 10


                                                            # dump hdf5 files to /hdf5 folder
#shell mkdir hdf5                                           # require build NUFEB with hdf5 option
#dump du3 all nufeb/hdf5 10 dump.h5 id type x y z vx vy vz fx fy fz radius conc reac

thermo_style custom step cpu atoms v_ncross1 v_ncross2 v_ncheater v_ndead v_mass     # screen and log outputs
thermo 1
thermo_modify   lost ignore

#-----------------------------------Run----------------------------------------#

# issue run command, define timesteps for physical (pairdt) and chemical (diffdt) processes
run_style nufeb diffdt 1e-4 difftol 1e-6 pairdt 1e-2 pairtol 1 pairmax 1000 diffmax 5000

timestep 12000                                               # define biological timesteps (1000s)

run 320                                                    # growing biofilm for 900x1000s
Generated 0 of 6 mixed pair_coeff terms from geometric mixing rule
Last active /omp style is pair_style gran/hooke/history/omp
Neighbor list info ...
  update every 1 steps, delay 10 steps, check yes
  max neighbors/atom: 2000, page size: 100000
  master list distance cutoff = 2.49e-06
  ghost atom cutoff = 2.49e-06
  binsize = 1.245e-06, bins = 49 49 49
  1 neighbor lists, perpetual/occasional/extra = 1 0 0
  (1) pair gran/hooke/history/omp, perpetual
      attributes: half, newton off, size, history, omp
      pair build: half/size/bin/newtoff/omp
      stencil: full/bin/3d
      bin: standard
Per MPI rank memory allocation (min/avg/max) = 11.02 | 11.02 | 11.02 Mbytes
   Step          CPU          Atoms      v_ncross1      v_ncross2      v_ncheater      v_ndead         v_mass    
         0   0                    150   50             50             50             0              1.3295396e-13
         1   0.38399535           273   96             91             86             0              1.9616795e-13
         2   0.76298516           433   149            148            136            0              2.2400088e-13
         3   1.0575709            547   172            200            175            0              2.4555653e-13
         4   1.3434804            589   181            218            190            0              2.6436347e-13
         5   1.5453173            627   191            231            205            0              2.815486e-13 
         6   1.6834708            665   199            251            215            0              2.9786715e-13
         7   1.8003341            697   210            261            226            0              3.131071e-13 
         8   1.9199071            731   220            272            239            0              3.2761814e-13
         9   2.0385736            762   230            282            250            0              3.4129113e-13
        10   2.1512729            799   243            290            266            0              3.5421145e-13
        11   2.266322             834   250            305            279            0              3.664155e-13 
        12   2.3735341            863   261            312            290            0              3.7815065e-13
        13   2.4599135            893   269            318            306            0              3.8938397e-13
        14   2.5246035            922   276            327            319            0              4.0006173e-13
        15   2.6297735            941   279            334            328            0              4.1017007e-13
        16   2.7153812            968   283            345            340            0              4.198634e-13 
        17   2.8235727            992   289            351            352            0              4.2909743e-13
        18   2.9377794           1011   291            361            359            0              4.3811888e-13
        19   3.0410153           1040   297            367            376            0              4.4677129e-13
        20   3.1776535           1062   302            369            391            0              4.5529162e-13
        21   3.3308369           1081   309            371            401            0              4.6369413e-13
        22   3.4406299           1103   314            372            417            0              4.7211236e-13
        23   3.5713513           1126   317            373            436            0              4.8035705e-13
        24   3.6938919           1153   323            378            452            0              4.8861173e-13
        25   3.8093159           1180   326            378            476            0              4.9677376e-13
        26   3.9131744           1205   331            381            493            0              5.0482393e-13
        27   4.0365382           1221   333            383            505            0              5.1264662e-13
        28   4.133278            1248   336            390            522            0              5.204103e-13 
        29   4.2310958           1273   340            394            539            0              5.2786573e-13
        30   4.3688951           1296   341            398            557            0              5.3514278e-13
        31   4.4638407           1322   344            402            576            0              5.4231799e-13
        32   4.5896281           1339   345            405            589            0              5.4937975e-13
        33   4.717541            1361   349            407            605            0              5.5645896e-13
        34   4.8425261           1379   351            407            621            0              5.635885e-13 
        35   4.9906566           1401   352            408            641            0              5.7071886e-13
        36   5.081405            1432   354            409            669            0              5.7798878e-13
        37   5.191965            1455   355            411            689            0              5.850722e-13 
        38   5.3274896           1474   356            413            705            0              5.9211352e-13
        39   5.4492985           1495   356            414            725            0              5.9928566e-13
        40   5.5712554           1517   357            416            744            0              6.0643906e-13
        41   5.7517999           1535   357            418            760            0              6.1347381e-13
        42   5.8929478           1562   360            420            782            0              6.2099554e-13
        43   6.0483905           1584   363            420            801            0              6.2848632e-13
        44   6.2295636           1610   363            420            827            0              6.3617352e-13
        45   6.4299697           1638   364            421            853            0              6.4421047e-13
        46   6.59653             1672   365            422            885            0              6.5262346e-13
        47   6.7840187           1701   367            422            912            0              6.6115645e-13
        48   7.0113557           1728   368            422            938            0              6.7000049e-13
        49   7.2141871           1754   369            422            963            0              6.7913324e-13
        50   7.4409205           1793   370            422            1001           0              6.8859502e-13
        51   7.5970751           1821   373            422            1026           0              6.9842844e-13
        52   7.8025043           1860   373            422            1065           0              7.079852e-13 
        53   7.9923639           1896   374            422            1099           1              7.1793321e-13
        54   8.2123804           1942   375            422            1143           2              7.2802763e-13
        55   8.413814            1974   377            422            1172           3              7.3857212e-13
        56   8.5997976           2015   379            422            1209           5              7.4929182e-13
        57   8.7790915           2053   379            422            1246           6              7.6001874e-13
        58   8.9696377           2093   379            422            1285           7              7.7076813e-13
        59   9.1403935           2146   379            422            1335           10             7.815986e-13 
        60   9.3618688           2181   379            422            1362           18             7.923197e-13 
        61   9.5782967           2231   380            422            1404           25             8.0322224e-13
        62   9.7847096           2267   380            423            1433           31             8.1423328e-13
        63   10.012272           2299   380            423            1459           37             8.2536947e-13
        64   10.273025           2343   380            423            1491           49             8.3669352e-13
        65   10.517651           2379   381            423            1514           61             8.4848093e-13
        66   10.773057           2423   381            423            1551           68             8.6046335e-13
        67   11.025244           2477   382            424            1598           73             8.7270715e-13
        68   11.289117           2514   383            425            1628           78             8.8512816e-13
        69   11.52302            2567   383            426            1670           88             8.9765852e-13
        70   11.738595           2620   383            426            1712           99             9.1010441e-13
        71   12.063811           2671   384            426            1756           105            9.2229903e-13
        72   12.275133           2712   384            426            1791           111            9.3428646e-13
        73   12.437458           2761   384            426            1832           119            9.4605094e-13
        74   12.601995           2814   384            426            1877           127            9.5729847e-13
        75   12.81               2862   384            426            1916           136            9.6823635e-13
        76   13.027612           2906   386            426            1952           142            9.7929593e-13
        77   13.269562           2946   386            426            1983           151            9.902357e-13 
        78   13.579076           2981   386            426            2012           157            1.0013444e-12
        79   13.889572           3024   386            426            2048           164            1.0129856e-12
        80   14.274405           3076   386            426            2093           171            1.0251971e-12
        81   14.628924           3126   386            426            2132           182            1.038472e-12 
        82   14.989661           3187   386            426            2184           191            1.0523842e-12
        83   15.300919           3249   386            426            2237           200            1.0668564e-12
        84   15.606732           3300   386            426            2284           204            1.0815103e-12
        85   15.889018           3353   386            426            2325           216            1.0961739e-12
        86   16.163623           3415   386            426            2384           219            1.1106639e-12
        87   16.423709           3479   386            426            2439           228            1.1250009e-12
        88   16.720016           3551   386            426            2502           237            1.139097e-12 
        89   17.059522           3606   386            426            2552           242            1.1535053e-12
        90   17.423375           3658   386            426            2596           250            1.1685203e-12
        91   17.801811           3731   386            426            2663           256            1.1835891e-12
        92   18.183383           3804   387            426            2729           262            1.199786e-12 
        93   18.567222           3872   387            426            2790           269            1.2165626e-12
        94   18.944145           3947   387            426            2861           273            1.2343099e-12
        95   19.324164           4020   387            426            2928           279            1.2526774e-12
        96   19.703627           4092   387            426            2993           286            1.2716779e-12
        97   20.069838           4184   387            426            3078           293            1.2908536e-12
        98   20.410792           4275   386            425            3166           298            1.3101831e-12
        99   20.742517           4345   386            425            3228           306            1.3293927e-12
       100   21.118288           4447   386            425            3324           312            1.3483697e-12
       101   21.488662           4533   386            425            3399           323            1.367341e-12 
       102   21.901174           4629   386            425            3486           332            1.3864806e-12
       103   22.348639           4708   386            424            3559           339            1.4064126e-12
       104   22.753139           4806   386            424            3649           347            1.427448e-12 
       105   23.177722           4897   384            424            3730           359            1.4490152e-12
       106   23.594768           5000   383            424            3824           369            1.4717374e-12
       107   24.014227           5116   382            424            3928           382            1.4950837e-12
       108   24.424716           5204   381            422            4004           397            1.518904e-12 
       109   24.821479           5314   381            422            4108           403            1.5428155e-12
       110   25.232471           5427   379            420            4203           425            1.5665415e-12
       111   25.599158           5540   379            420            4305           436            1.5897538e-12
       112   25.982263           5634   379            417            4382           456            1.6123227e-12
       113   26.352327           5742   379            414            4482           467            1.6343727e-12
       114   26.787471           5848   379            412            4571           486            1.6560548e-12
       115   27.223513           5972   379            412            4680           501            1.6785673e-12
       116   27.660958           6068   379            411            4754           524            1.7014698e-12
       117   28.117505           6184   379            409            4855           541            1.7256648e-12
       118   28.563653           6285   379            408            4944           554            1.7511171e-12
       119   29.011549           6400   379            408            5043           570            1.7772644e-12
       120   29.504911           6522   379            407            5149           587            1.8037908e-12
       121   29.966207           6632   379            406            5238           609            1.8307134e-12
       122   30.420362           6744   379            406            5335           624            1.8576243e-12
       123   30.893436           6867   379            406            5443           639            1.8840807e-12
       124   31.3599             6978   379            405            5539           655            1.9107196e-12
       125   31.828423           7097   379            404            5639           675            1.9369209e-12
       126   32.296596           7231   379            404            5763           685            1.9633646e-12
       127   32.795478           7368   379            404            5878           707            1.9910191e-12
       128   33.286444           7483   379            403            5976           725            2.0196242e-12
       129   33.782288           7625   379            403            6100           743            2.0494726e-12
       130   34.324156           7768   379            402            6213           774            2.0809027e-12
       131   34.81013            7911   379            401            6332           799            2.1134375e-12
       132   35.302057           8041   379            401            6431           830            2.1466299e-12
       133   35.803265           8186   379            401            6544           862            2.1805783e-12
       134   36.317739           8348   378            401            6676           893            2.2148182e-12
       135   36.862712           8495   378            401            6786           930            2.2492181e-12
       136   37.399227           8659   378            401            6915           965            2.2837459e-12
       137   37.943774           8818   378            401            7039           1000           2.3182207e-12
       138   38.488064           8980   378            401            7157           1044           2.3534854e-12
       139   39.057892           9137   378            400            7276           1083           2.3896328e-12
       140   39.659511           9327   378            400            7429           1120           2.428277e-12 
       141   40.245343           9507   378            400            7557           1172           2.4686716e-12
       142   40.840784           9709   377            400            7702           1230           2.511103e-12 
       143   41.437372           9906   377            400            7853           1276           2.5555506e-12
       144   42.032172          10089   377            400            7989           1323           2.601026e-12 
       145   42.632294          10311   377            399            8161           1374           2.6483137e-12
       146   43.269267          10526   377            398            8311           1440           2.6960325e-12
       147   43.903512          10737   377            398            8460           1502           2.7445802e-12
       148   44.545022          10956   377            398            8629           1552           2.7942276e-12
       149   45.178784          11165   377            398            8777           1613           2.8452363e-12
       150   45.899628          11418   377            398            8972           1671           2.8986265e-12
       151   46.612582          11660   377            397            9176           1710           2.9540013e-12
       152   47.34803           11920   377            396            9376           1771           3.0129592e-12
       153   48.058724          12182   377            396            9563           1846           3.0749337e-12
       154   48.864667          12465   377            395            9788           1905           3.1400718e-12
       155   49.693554          12726   377            394            9988           1967           3.2062168e-12
       156   50.53215           13013   377            394            10223          2019           3.2752099e-12
       157   51.391046          13289   377            393            10434          2085           3.3470827e-12
       158   52.308556          13594   377            393            10668          2156           3.4225677e-12
       159   53.296479          13909   377            393            10904          2235           3.5020549e-12
       160   54.401979          14259   377            392            11201          2289           3.5874882e-12
       161   55.566469          14608   377            392            11498          2341           3.6812938e-12
       162   56.816814          14961   377            392            11791          2401           3.7829759e-12
       163   58.072371          15337   377            392            12102          2466           3.8942122e-12
       164   59.514181          15747   377            392            12437          2541           4.0143572e-12
       165   61.125536          16210   377            392            12833          2608           4.1403515e-12
       166   62.872388          16625   377            392            13191          2665           4.2671019e-12
       167   64.835399          17100   377            392            13585          2746           4.4028982e-12
       168   67.045505          17568   377            389            13989          2813           4.5314468e-12
       169   69.314963          18014   377            389            14366          2882           4.6584895e-12
       170   71.689161          18484   377            389            14780          2938           4.7910897e-12
       171   74.041256          18956   377            389            15180          3010           4.9350235e-12
       172   76.44327           19489   377            389            15645          3078           5.0754187e-12
       173   78.891234          20056   376            388            16137          3155           5.2295527e-12
       174   81.431935          20570   375            385            16568          3242           5.3720639e-12
       175   83.998162          21099   374            384            17004          3337           5.519617e-12 
       176   86.583638          21657   374            382            17467          3434           5.6650828e-12
       177   89.200841          22181   374            382            17881          3544           5.8056995e-12
       178   91.864219          22742   374            380            18342          3646           5.951902e-12 
       179   94.529027          23367   374            379            18876          3738           6.1306183e-12
       180   97.299073          23980   373            377            19414          3816           6.2955133e-12
       181   100.008            24626   371            375            19972          3908           6.4718518e-12
       182   102.76739          25264   371            373            20512          4008           6.63879e-12  
       183   105.52425          25949   371            373            21085          4120           6.8119404e-12
       184   108.2881           26537   371            373            21575          4218           6.9833332e-12
       185   111.03896          27259   371            371            22175          4342           7.175649e-12 
       186   113.78762          28014   371            371            22774          4498           7.3570645e-12
       187   116.53568          28734   371            370            23356          4637           7.5621693e-12
       188   119.29107          29493   369            368            23990          4766           7.7584924e-12
       189   122.06272          30219   366            365            24566          4922           7.9536653e-12
       190   124.90218          30958   363            361            25131          5103           8.1625219e-12
       191   127.64788          31725   362            356            25719          5288           8.3645266e-12
       192   130.41708          32553   362            350            26361          5480           8.5667772e-12
       193   133.18732          33313   361            345            26933          5674           8.7588414e-12
       194   135.94438          34131   353            340            27502          5936           8.9661409e-12
       195   138.68524          34880   346            335            28017          6182           9.161947e-12 
       196   141.44421          35682   343            328            28566          6445           9.3639804e-12
       197   144.21852          36531   341            320            29150          6720           9.5772114e-12
       198   146.98986          37332   331            303            29711          6987           9.7559241e-12
       199   149.7785           38111   320            292            30248          7251           9.9520276e-12
       200   152.666            38945   306            280            30819          7540           1.0133119e-11
       201   155.48363          39720   301            266            31365          7788           1.0303021e-11
       202   158.34445          40427   292            256            31815          8064           1.0465014e-11
       203   161.16183          41201   276            246            32314          8365           1.0618626e-11
       204   163.94916          41964   264            232            32822          8646           1.0780193e-11
       205   166.81062          42549   247            212            33145          8945           1.0879145e-11
       206   169.63904          43321   234            189            33672          9226           1.1015136e-11
       207   172.51739          43948   214            175            34051          9508           1.1100097e-11
       208   175.43293          44512   195            151            34413          9753           1.1189255e-11
       209   178.34179          45256   165            133            34998          9960           1.1302925e-11
       210   181.36672          45774   145            116            35301          10212          1.1371534e-11
       211   184.33956          46422   126            87             35745          10464          1.1441358e-11
       212   187.28416          47017   107            75             36178          10657          1.1508706e-11
       213   190.25822          47552   94             64             36527          10867          1.1574867e-11
       214   193.25795          48065   74             54             36840          11097          1.1623027e-11
       215   196.28795          48645   61             40             37236          11308          1.1660517e-11
       216   199.30764          49182   49             30             37576          11527          1.1705616e-11
       217   202.35996          49655   38             23             37811          11783          1.1737388e-11
       218   205.4185           50183   30             19             38096          12038          1.1756976e-11
       219   208.50378          50700   18             15             38326          12341          1.1820462e-11
       220   211.78067          51098   13             12             38412          12661          1.1818181e-11
       221   214.90367          51541   11             7              38565          12958          1.1804065e-11
       222   218.06075          52067   9              7              38827          13224          1.183077e-11 
       223   221.25728          52449   7              5              38906          13531          1.1823456e-11
       224   224.48784          52846   5              3              38962          13876          1.1828393e-11
       225   227.70069          53299   4              3              39080          14212          1.1832636e-11
       226   230.93273          53632   4              1              39088          14539          1.1812784e-11
       227   234.17268          54040   4              1              39164          14871          1.1792425e-11
       228   237.44895          54504   4              1              39308          15191          1.1802155e-11
       229   240.75515          54888   2              0              39357          15529          1.180159e-11 
       230   244.21375          55256   1              0              39407          15848          1.1801588e-11
       231   247.56327          55668   1              0              39491          16176          1.1788725e-11
       232   250.89527          56106   1              0              39633          16472          1.1792244e-11
       233   254.25745          56459   1              0              39633          16825          1.1770545e-11
       234   257.67222          56801   1              0              39668          17132          1.1760379e-11
       235   261.09359          57187   1              0              39750          17436          1.1766273e-11
       236   264.52071          57633   1              0              39895          17737          1.1774076e-11
       237   268.01298          57929   1              0              39901          18027          1.1755151e-11
       238   271.52903          58452   1              0              40159          18292          1.1791929e-11
       239   275.09683          58733   1              0              40183          18549          1.1750821e-11
       240   278.80327          59113   1              0              40257          18855          1.1753415e-11
       241   282.4162           59482   1              0              40307          19174          1.1757508e-11
       242   286.02091          59950   1              0              40467          19482          1.1782649e-11
       243   289.69055          60191   1              0              40402          19788          1.1755293e-11
       244   293.36913          60571   1              0              40480          20090          1.1734256e-11
       245   297.06055          60923   1              0              40536          20386          1.1736835e-11
       246   300.74788          61384   1              0              40685          20698          1.1744746e-11
       247   304.46397          61625   1              0              40584          21040          1.1720622e-11
       248   308.18083          62030   1              0              40661          21368          1.1750338e-11
       249   311.95294          62333   1              0              40606          21726          1.1731339e-11
       250   315.88844          62692   1              0              40638          22053          1.1709995e-11
       251   319.73108          62996   1              0              40595          22400          1.1716722e-11
       252   323.59289          63395   1              0              40658          22736          1.1724683e-11
       253   327.42941          63675   1              0              40590          23084          1.1693384e-11
       254   331.30226          64056   1              0              40580          23475          1.1713721e-11
       255   335.21362          64427   1              0              40532          23894          1.1719703e-11
       256   339.1789           64700   1              0              40374          24325          1.1703069e-11
       257   343.15606          65045   1              0              40298          24746          1.1704179e-11
       258   347.18699          65318   1              0              40150          25167          1.1672863e-11
       259   351.18703          65671   1              0              40092          25578          1.1696875e-11
       260   355.22486          66074   1              0              40073          26000          1.1706408e-11
       261   359.17441          66436   1              0              39957          26478          1.1724181e-11
       262   363.28339          66618   1              0              39652          26965          1.1673615e-11
       263   367.41839          66999   1              0              39575          27423          1.1695443e-11
       264   371.61368          67345   1              0              39443          27901          1.1683487e-11
       265   375.69295          67645   1              0              39241          28403          1.1714898e-11
       266   379.8544           67968   1              0              39083          28884          1.1701133e-11
       267   383.97561          68340   1              0              38958          29381          1.1728963e-11
       268   388.31748          68650   1              0              38778          29871          1.171781e-11 
       269   392.46791          68984   1              0              38638          30345          1.1750381e-11
       270   397.00827          69234   1              0              38411          30822          1.1721658e-11
       271   401.2833           69605   1              0              38330          31274          1.1734288e-11
       272   405.51776          69933   1              0              38175          31757          1.1737394e-11
       273   409.90877          70247   1              0              38020          32226          1.1745699e-11
       274   414.22557          70539   1              0              37839          32699          1.1740582e-11
       275   418.56395          70856   1              0              37706          33149          1.1763471e-11
       276   422.87641          71165   1              0              37572          33592          1.1780466e-11
       277   427.35465          71447   1              0              37441          34005          1.1764791e-11
       278   431.82747          71752   1              0              37313          34438          1.1768133e-11
       279   436.2408           72054   1              0              37232          34821          1.1779988e-11
       280   440.89944          72385   1              0              37175          35209          1.1791069e-11
       281   445.38463          72663   1              0              37016          35646          1.1802687e-11
       282   449.87786          73067   1              0              37020          36046          1.1826373e-11
       283   454.39314          73326   1              0              36854          36471          1.1828965e-11
       284   459.01077          73578   1              0              36724          36853          1.1829905e-11
       285   463.63271          73957   1              0              36651          37305          1.1865132e-11
       286   468.28807          74142   1              0              36484          37657          1.1828444e-11
       287   472.85665          74496   1              0              36462          38033          1.1853671e-11
       288   477.55017          74832   1              0              36404          38427          1.1856552e-11
       289   482.23772          75069   1              0              36256          38812          1.1871529e-11
       290   487.03823          75436   1              0              36269          39166          1.1901675e-11
       291   491.64804          75764   1              0              36248          39515          1.1922397e-11
       292   496.34525          76067   1              0              36192          39874          1.1910084e-11
       293   501.00142          76412   1              0              36199          40212          1.1919673e-11
       294   505.64289          76680   1              0              36119          40560          1.1951159e-11
       295   510.40696          76950   1              0              36038          40911          1.1940257e-11
       296   515.13621          77255   1              0              36026          41228          1.1970899e-11
       297   519.87686          77665   1              0              36102          41562          1.2006106e-11
       298   524.75718          77900   1              0              36025          41874          1.1994433e-11
       299   529.62828          78166   1              0              35949          42216          1.1991631e-11
       300   534.73704          78453   1              0              35918          42534          1.2001988e-11
       301   539.60125          78746   1              0              35867          42878          1.2017943e-11
       302   544.56606          78981   1              0              35778          43202          1.1996966e-11
       303   549.58527          79249   1              0              35714          43534          1.1999205e-11
       304   554.52183          79634   1              0              35792          43841          1.2037403e-11
       305   559.50475          79958   1              0              35827          44130          1.2060891e-11
       306   564.56847          80233   1              0              35756          44476          1.2063632e-11
       307   569.62578          80480   1              0              35708          44771          1.2065552e-11
       308   574.81399          80823   1              0              35708          45114          1.2095893e-11
       309   580.03436          81155   1              0              35738          45416          1.2122228e-11
       310   585.4278           81442   1              0              35706          45735          1.2112153e-11
       311   590.67408          81663   1              0              35625          46037          1.2099435e-11
       312   595.96227          82004   1              0              35672          46331          1.2129271e-11
       313   601.2047           82259   1              0              35623          46635          1.2133372e-11
       314   606.49785          82503   1              0              35541          46961          1.2154078e-11
       315   611.83616          82837   1              0              35559          47277          1.2163867e-11
       316   617.25386          83135   1              0              35547          47587          1.2171549e-11
       317   622.70484          83494   1              0              35614          47879          1.2197954e-11
       318   628.18739          83756   1              0              35564          48191          1.2189616e-11
       319   633.63599          84056   1              0              35574          48481          1.2219045e-11
       320   639.42509          84320   1              0              35543          48776          1.2219811e-11
Loop time of 639.425 on 16 procs for 320 steps with 84320 atoms

98.1% CPU use with 16 MPI tasks x 1 OpenMP threads

MPI task timing breakdown:
Section |  min time  |  avg time  |  max time  |%varavg| %total
---------------------------------------------------------------
Pair    | 124.78     | 168.95     | 256.61     | 288.2 | 26.42
Neigh   | 22.577     | 42.284     | 103.41     | 357.3 |  6.61
Comm    | 75.196     | 96.82      | 119.84     | 184.8 | 15.14
Output  | 2.7204     | 2.7205     | 2.7207     |   0.0 |  0.43
Modify  | 148.99     | 303.25     | 384.16     | 399.9 | 47.43
Other   |            | 25.4       |            |       |  3.97

Nlocal:           5270 ave       10052 max        3791 min
Histogram: 9 1 2 0 2 0 0 0 0 2
Nghost:        4177.38 ave        6530 max        2998 min
Histogram: 5 5 0 0 2 0 0 2 0 2
Neighs:        43862.1 ave       56575 max       35970 min
Histogram: 2 2 4 2 2 0 2 0 0 2

Total # of neighbors = 701793
Ave neighs/atom = 8.322972
Neighbor list builds = 5005
Dangerous builds = 401

Total wall time: 0:10:58
