LAMMPS (23 Jun 2022 - Update 4)
  using 1 OpenMP thread(s) per MPI task
package omp 0
using multi-threaded neighbor list subroutines
#-----------------------------------------------------------------------------#
#                NUFEB Simulation: Heterotrophic Biofilm Growth               #
#-----------------------------------------------------------------------------#


#-----------------------------System Settings---------------------------------#

units si                                    # using si units (m, s, kg)
atom_style      coccus                      # using nufeb coccus atom style
atom_modify     map array sort 10 0         # map array - find atoms using indices
		                            # sort every 10

boundary        pp pp ff                    # periodic boundaries in x and y
                                            # fixed boundary in z

newton          off                         # forces between local and ghost
                                            # atoms are computed in each
					     # processor without communication

processors      * * 1                       # processor grid

comm_modify     vel yes                     # communicate velocities for ghost atoms

read_data       atom_ch.in	             # read atom.in file which defines domain size
Reading data file ...
  orthogonal box = (0 0 0) to (6e-05 6e-05 6e-05)
  4 by 4 by 1 MPI processor grid
  reading atoms ...
  150 atoms
  read_data CPU = 0.018 seconds
                                            # and initial atoms


#--------------------Microbes and Functional Groups-------------------------#

group           CROSS1   type 1               # assign type 1,2 atoms to CROSS group
50 atoms in group CROSS1
group           CROSS2   type 2
50 atoms in group CROSS2
group		CHEATER  type 3
50 atoms in group CHEATER
group           dead     type 4
0 atoms in group dead

neighbor        5e-7 bin                   # setting neighbour skin distance and style

neigh_modify    check yes                  # rebuild neighbour list if any atom
                                           # had moved more than half the skin distance


#--------------------------Mesh Grid and Substrates--------------------------#

# defining grid sytle, substrate names, and grid size
grid_style      nufeb/chemostat 3 sub metab1 metab2 5e-6

# set diffusion boundary conditions and initial concentrations (liquid:kg/m3)
grid_modify     set sub      pp pp nd  1.8e-4
No /omp style for force computation currently active
grid_modify     set metab1   pp pp nd  1e-4
No /omp style for force computation currently active
grid_modify     set metab2   pp pp nd  1e-4
No /omp style for force computation currently active


#--------------------------Biological Processes-------------------------------#

# heterotrophs growth
fix growth_cross1 CROSS1 nufeb/growth/cross1 sub 3.5e-5 metab2 4e-3 metab1 growth 0.009 yield 0.6 decay 2.6e-6 metab1_exp 20

fix growth_cross2 CROSS2 nufeb/growth/cross2 sub 3.5e-5 metab1 4e-3 metab2 growth 0.009 yield 0.6 decay 2.6e-6 metab2_exp 20

fix growth_cheater CHEATER nufeb/growth/cheater sub 3.5e-5 metab1 1e-3 metab2 1e-3 growth 0.009 yield 0.6 decay 2.6e-6
# heterotrophs division, division diameter: 1.36e-6
fix div1 CROSS1 nufeb/division/coccus 1.36e-6 152
fix div2 CROSS2 nufeb/division/coccus 1.36e-6 302
fix div3 CHEATER nufeb/division/coccus 1.36e-6 550

fix death1 CROSS1 nufeb/death/diameter dead 5.43e-7
fix death2 CROSS2 nufeb/death/diameter dead 5.43e-7
fix death3 CHEATER nufeb/death/diameter dead 5.43e-7

#---------------------------Physical Processes--------------------------------#

pair_style  gran/hooke/history 1e-4 NULL 1e-5 NULL 0.0 0    # pairwise interaction
pair_coeff  * *                                             # between atoms

# pairwise interaction between z-wall and atoms
fix wall all wall/gran hooke/history 1e-3 NULL 1e-4 NULL 0 0 zplane 0.0 1e-04

fix vis all viscous 1e-5                                    # viscous damping force

fix grav all gravity 9.81 vector 0.0 0.0 -1.0

fix nve all nve/limit 1e-7                                  # NVE integration with
                                                            # maximum distance limit


#---------------------------Post-Physical Processes---------------------------#

fix coeff_sub all nufeb/diffusion_coeff sub ratio 0.8       # defining diffusion coeff in the biofilm
fix coeff_metab1 all nufeb/diffusion_coeff metab1 ratio 0.8    # region is 80% of the value in liquid
fix coeff_metab2 all nufeb/diffusion_coeff metab2 ratio 0.8

#---------------------------Chemical Processes---------------------------------#

fix diff_sub all nufeb/diffusion_reaction sub 1e-9        # diffusion reaction for updating
fix diff_metab1 all nufeb/diffusion_reaction metab1 4e-9     # distribusion of substrate concentration
fix diff_metab2 all nufeb/diffusion_reaction metab2 4e-9

#--------------------------Computations and Outputs----------------------------#

variable mass equal "mass(all)"                             # total mass
variable ncross1 equal "count(CROSS1)"                      # total # of CROSS1
variable ncross2 equal "count(CROSS2)"                      # total # of CROSS2
variable ncheater equal "count(CHEATER)"
variable ndead equal "count(dead)"

shell mkdir vtk_NEPS_ch                                            # dump vtk files to /vtk folder
dump du1 all vtk 10 vtk_NEPS_ch/dump*.vtu id type diameter         # require build NUFEB with vtk option
dump du2 all grid/vtk 10 vtk_NEPS_ch/dump_%_*.vti con rea den gro

#dump du3 all movie 10 movie.avi type diameter view 80 60    # dump video
#dump_modify du3 acolor 1 blue acolor 2 lightgrey framerate 10


                                                            # dump hdf5 files to /hdf5 folder
#shell mkdir hdf5                                           # require build NUFEB with hdf5 option
#dump du3 all nufeb/hdf5 10 dump.h5 id type x y z vx vy vz fx fy fz radius conc reac

thermo_style custom step cpu atoms v_ncross1 v_ncross2 v_ncheater v_ndead v_mass     # screen and log outputs
thermo 1
thermo_modify   lost ignore

#-----------------------------------Run----------------------------------------#

# issue run command, define timesteps for physical (pairdt) and chemical (diffdt) processes
run_style nufeb diffdt 1e-4 difftol 1e-6 pairdt 1e-2 pairtol 1 pairmax 1000 diffmax 5000

timestep 12000                                               # define biological timesteps (1000s)

run 320                                                    # growing biofilm for 900x1000s
Generated 0 of 6 mixed pair_coeff terms from geometric mixing rule
Last active /omp style is pair_style gran/hooke/history/omp
Neighbor list info ...
  update every 1 steps, delay 10 steps, check yes
  max neighbors/atom: 2000, page size: 100000
  master list distance cutoff = 2.49e-06
  ghost atom cutoff = 2.49e-06
  binsize = 1.245e-06, bins = 49 49 49
  1 neighbor lists, perpetual/occasional/extra = 1 0 0
  (1) pair gran/hooke/history/omp, perpetual
      attributes: half, newton off, size, history, omp
      pair build: half/size/bin/newtoff/omp
      stencil: full/bin/3d
      bin: standard
Per MPI rank memory allocation (min/avg/max) = 11.02 | 11.02 | 11.02 Mbytes
   Step          CPU          Atoms      v_ncross1      v_ncross2      v_ncheater      v_ndead         v_mass    
         0   0                    150   50             50             50             0              1.3295396e-13
         1   0.39192637           273   96             91             86             0              1.9616795e-13
         2   0.76981258           434   149            149            136            0              2.2443295e-13
         3   1.1106638            554   174            201            179            0              2.4607119e-13
         4   1.4119109            587   184            209            194            0              2.6584921e-13
         5   1.6439844            630   198            224            208            0              2.8436638e-13
         6   1.787238             670   207            234            229            0              3.0178036e-13
         7   1.9268373            708   216            247            245            0              3.1804163e-13
         8   2.064522             744   225            258            261            0              3.337296e-13 
         9   2.1688142            779   237            269            273            0              3.4824366e-13
        10   2.3342149            813   245            285            283            0              3.6200457e-13
        11   2.4327397            846   252            294            300            0              3.7511057e-13
        12   2.5143032            880   259            305            316            0              3.8732578e-13
        13   2.6092869            902   264            314            324            0              3.9915953e-13
        14   2.6965585            939   272            320            347            0              4.1047153e-13
        15   2.7898337            962   275            325            362            0              4.2124009e-13
        16   2.8983453            987   280            330            377            0              4.3146713e-13
        17   2.9879859           1021   289            340            392            0              4.4137906e-13
        18   3.0573344           1047   294            346            407            0              4.5086186e-13
        19   3.1296068           1072   297            353            422            0              4.5984339e-13
        20   3.2158561           1091   300            359            432            0              4.6837951e-13
        21   3.305066            1127   307            366            454            0              4.7649587e-13
        22   3.3852534           1140   307            369            464            0              4.8428104e-13
        23   3.4539179           1162   312            375            475            0              4.917363e-13 
        24   3.5308738           1180   316            378            486            0              4.9886574e-13
        25   3.6004219           1201   320            382            499            0              5.0578065e-13
        26   3.6612389           1217   324            382            511            0              5.1241762e-13
        27   3.7274488           1237   329            384            524            0              5.1880445e-13
        28   3.7979771           1257   330            388            539            0              5.249544e-13 
        29   3.8673607           1269   333            389            547            0              5.3092783e-13
        30   3.9555255           1292   336            395            561            0              5.367227e-13 
        31   4.0173346           1306   337            396            573            0              5.4229459e-13
        32   4.0832076           1320   338            398            584            0              5.4766701e-13
        33   4.1460001           1339   341            401            597            0              5.5287964e-13
        34   4.2042173           1358   345            403            610            0              5.5791663e-13
        35   4.2587257           1372   345            404            623            0              5.6276561e-13
        36   4.3173407           1386   347            405            634            0              5.6742182e-13
        37   4.3642912           1404   348            405            651            0              5.7191929e-13
        38   4.4133114           1419   349            405            665            0              5.7618289e-13
        39   4.4603823           1433   352            408            673            0              5.8031937e-13
        40   4.5282372           1443   354            409            680            0              5.842927e-13 
        41   4.6166136           1459   357            409            693            0              5.884168e-13 
        42   4.6768101           1466   358            409            699            0              5.9191991e-13
        43   4.7160428           1479   359            411            709            0              5.9516848e-13
        44   4.7613249           1490   360            413            717            0              5.9830744e-13
        45   4.8043036           1500   360            415            725            0              6.0128351e-13
        46   4.8587311           1513   363            416            734            0              6.0413548e-13
        47   4.8942097           1527   364            418            745            0              6.0691211e-13
        48   4.933832            1534   365            419            750            0              6.0949024e-13
        49   4.9729952           1548   368            419            761            0              6.1197127e-13
        50   5.0352866           1555   369            419            767            0              6.1432878e-13
        51   5.0779943           1560   369            419            772            0              6.1660566e-13
        52   5.1113963           1570   370            419            780            1              6.1878932e-13
        53   5.146353            1577   371            419            786            1              6.2082378e-13
        54   5.1996467           1590   373            420            794            3              6.2278782e-13
        55   5.2387435           1598   373            420            801            4              6.2468729e-13
        56   5.278572            1609   375            420            810            4              6.2647858e-13
        57   5.3219141           1616   378            420            814            4              6.2819747e-13
        58   5.3921222           1628   380            421            819            8              6.2984555e-13
        59   5.4161802           1636   381            422            824            9              6.3166067e-13
        60   5.4975827           1643   383            422            828            10             6.3330418e-13
        61   5.5352967           1655   386            422            836            11             6.3498051e-13
        62   5.6057654           1663   386            423            838            16             6.3652428e-13
        63   5.6849608           1669   387            423            836            23             6.3822285e-13
        64   5.7781363           1678   389            424            834            31             6.400297e-13 
        65   5.8672969           1688   390            424            836            38             6.4198977e-13
        66   5.9361566           1695   391            425            831            48             6.4406144e-13
        67   6.0418939           1707   391            425            838            53             6.4623949e-13
        68   6.1511625           1716   391            425            839            61             6.4860549e-13
        69   6.2676114           1726   393            425            839            69             6.5122341e-13
        70   6.4101481           1738   395            425            843            75             6.5415517e-13
        71   6.5304074           1750   396            425            846            83             6.5741237e-13
        72   6.6563137           1757   397            425            845            90             6.6094293e-13
        73   6.769223            1779   397            425            861            96             6.6461228e-13
        74   6.8807566           1795   400            426            870            99             6.6839522e-13
        75   6.9800305           1809   400            426            873            110            6.7233384e-13
        76   7.065026            1826   402            427            878            119            6.762606e-13 
        77   7.1530007           1841   402            427            888            124            6.8015566e-13
        78   7.2400778           1861   402            427            906            126            6.8397181e-13
        79   7.3095114           1876   404            429            913            130            6.8773763e-13
        80   7.4046895           1883   404            429            912            138            6.9140412e-13
        81   7.4826942           1895   404            429            919            143            6.9498867e-13
        82   7.5480483           1915   405            429            933            148            6.985105e-13 
        83   7.6338143           1931   407            429            943            152            7.0194261e-13
        84   7.7697721           1955   408            429            960            158            7.0542593e-13
        85   7.8955349           1964   408            429            965            162            7.093338e-13 
        86   8.0087124           1986   409            429            980            168            7.1319362e-13
        87   8.1493723           1991   409            429            979            174            7.1711814e-13
        88   8.2966262           2011   409            430            994            178            7.212849e-13 
        89   8.5025035           2027   409            430            1006           182            7.2573811e-13
        90   8.7274297           2049   409            430            1021           189            7.3081522e-13
        91   8.9333403           2073   409            430            1041           193            7.3632337e-13
        92   9.1258214           2093   409            430            1057           197            7.4227159e-13
        93   9.29255             2112   409            430            1074           199            7.4848078e-13
        94   9.4508094           2131   409            430            1089           203            7.5474617e-13
        95   9.5850587           2154   409            430            1106           209            7.6102965e-13
        96   9.7104422           2184   411            430            1131           212            7.6719492e-13
        97   9.827281            2208   411            430            1152           215            7.7320694e-13
        98   9.926661            2222   411            430            1163           218            7.7904487e-13
        99   10.016681           2244   411            430            1184           219            7.8465843e-13
       100   10.137997           2263   411            430            1202           220            7.9003613e-13
       101   10.21793            2284   411            430            1218           225            7.9516116e-13
       102   10.31836            2306   411            430            1239           226            8.0005705e-13
       103   10.446765           2330   411            430            1257           232            8.0494628e-13
       104   10.664587           2351   411            430            1274           236            8.1000923e-13
       105   10.867123           2374   411            430            1294           239            8.1562697e-13
       106   11.110134           2400   411            430            1317           242            8.2164591e-13
       107   11.382594           2420   411            430            1335           244            8.2828e-13   
       108   11.664022           2444   411            430            1355           248            8.3571958e-13
       109   11.942195           2474   411            430            1383           250            8.4383364e-13
       110   12.243102           2502   411            430            1410           251            8.5258765e-13
       111   12.465352           2534   411            430            1440           253            8.6186274e-13
       112   12.674323           2568   411            430            1473           254            8.7118483e-13
       113   12.886829           2600   411            430            1505           254            8.8044307e-13
       114   13.067614           2634   412            430            1533           259            8.8990194e-13
       115   13.286358           2676   412            430            1575           259            8.9902265e-13
       116   13.484707           2713   413            430            1608           262            9.0850529e-13
       117   13.685662           2749   413            430            1643           263            9.180333e-13 
       118   13.937087           2793   413            430            1683           267            9.27444e-13  
       119   14.169733           2832   414            430            1719           269            9.3740205e-13
       120   14.567929           2880   414            430            1763           273            9.4744804e-13
       121   14.892606           2929   414            430            1805           280            9.5945902e-13
       122   15.265508           2982   414            430            1853           285            9.7188046e-13
       123   15.622923           3023   414            430            1887           292            9.854881e-13 
       124   15.991312           3088   414            430            1948           296            9.9995317e-13
       125   16.339094           3151   414            430            2007           300            1.0153714e-12
       126   16.659869           3213   414            430            2060           309            1.0312597e-12
       127   16.966644           3283   414            430            2120           319            1.0473253e-12
       128   17.228422           3358   414            430            2189           325            1.0633868e-12
       129   17.470695           3430   414            430            2252           334            1.0790826e-12
       130   17.741757           3484   414            430            2300           340            1.0944081e-12
       131   17.963667           3546   414            430            2360           342            1.1093028e-12
       132   18.231805           3608   414            430            2417           347            1.1236162e-12
       133   18.477642           3681   414            430            2482           355            1.1379156e-12
       134   18.73598            3748   414            430            2544           360            1.1517696e-12
       135   19.04384            3807   413            430            2599           365            1.1655584e-12
       136   19.414176           3867   413            430            2657           367            1.1795734e-12
       137   19.767804           3932   413            430            2720           369            1.1942262e-12
       138   20.1607             4004   413            430            2791           370            1.2092111e-12
       139   20.54134            4078   413            430            2863           372            1.2250318e-12
       140   20.963274           4151   413            430            2932           376            1.2412571e-12
       141   21.350731           4218   412            430            2997           379            1.2580175e-12
       142   21.710753           4287   412            430            3062           383            1.2748772e-12
       143   22.02739            4366   412            430            3141           383            1.291795e-12 
       144   22.332685           4440   411            430            3212           387            1.3085501e-12
       145   22.627041           4512   411            430            3283           388            1.3249415e-12
       146   22.902444           4579   410            430            3346           393            1.340857e-12 
       147   23.226519           4653   410            430            3417           396            1.3564839e-12
       148   23.596336           4732   410            430            3494           398            1.3720632e-12
       149   23.998546           4804   410            430            3562           402            1.3881129e-12
       150   24.437623           4877   410            430            3633           404            1.4050154e-12
       151   24.863277           4968   409            429            3723           407            1.4227787e-12
       152   25.288122           5064   409            429            3819           407            1.4419203e-12
       153   25.704283           5146   409            429            3897           411            1.461802e-12 
       154   26.122529           5224   409            429            3974           412            1.4825727e-12
       155   26.523778           5318   408            429            4068           413            1.5039089e-12
       156   26.920599           5419   408            429            4167           415            1.5252376e-12
       157   27.311008           5522   408            429            4267           418            1.5463162e-12
       158   27.65601            5607   408            429            4350           420            1.5672856e-12
       159   28.032566           5696   407            428            4429           432            1.5876408e-12
       160   28.458608           5808   407            428            4535           438            1.607735e-12 
       161   28.902181           5909   407            428            4627           447            1.6281674e-12
       162   29.353481           6026   407            428            4724           467            1.6493812e-12
       163   29.789909           6135   407            427            4809           492            1.6717022e-12
       164   30.227709           6233   407            427            4879           520            1.694543e-12 
       165   30.674415           6342   406            427            4969           540            1.7184079e-12
       166   31.112726           6454   405            427            5046           576            1.7438813e-12
       167   31.554438           6563   405            426            5123           609            1.7699242e-12
       168   31.992038           6688   405            426            5213           644            1.7965248e-12
       169   32.431934           6804   405            425            5293           681            1.8233386e-12
       170   32.907557           6936   405            425            5374           732            1.8498281e-12
       171   33.339777           7054   405            425            5447           777            1.8762295e-12
       172   33.79739            7177   405            425            5529           818            1.9020446e-12
       173   34.279965           7306   404            425            5621           856            1.927686e-12 
       174   34.796457           7437   404            423            5695           915            1.9540875e-12
       175   35.291932           7572   404            423            5783           962            1.9820799e-12
       176   35.779706           7703   404            423            5852           1024           2.0112175e-12
       177   36.300054           7846   404            423            5940           1079           2.0419473e-12
       178   36.816677           7989   404            422            6032           1131           2.0741907e-12
       179   37.318776           8113   404            422            6123           1164           2.1076406e-12
       180   38.030215           8267   404            422            6238           1203           2.141413e-12 
       181   38.574403           8407   403            422            6343           1239           2.1754831e-12
       182   39.116696           8561   403            422            6470           1266           2.2099316e-12
       183   39.656833           8707   403            422            6576           1306           2.2440813e-12
       184   40.233366           8851   403            422            6697           1329           2.2786762e-12
       185   40.795585           9023   402            422            6832           1367           2.3139652e-12
       186   41.345565           9201   402            422            6973           1404           2.350689e-12 
       187   41.885677           9367   402            422            7109           1434           2.3890766e-12
       188   42.433283           9545   402            421            7238           1484           2.4285964e-12
       189   43.031487           9736   402            421            7395           1518           2.4705674e-12
       190   43.651271           9915   401            421            7533           1560           2.5134223e-12
       191   44.247564          10084   401            421            7666           1596           2.5575777e-12
       192   44.881184          10278   400            421            7822           1635           2.6029344e-12
       193   45.519959          10474   400            421            7985           1668           2.6491823e-12
       194   46.172093          10694   400            421            8175           1698           2.6960213e-12
       195   46.839155          10905   400            421            8354           1730           2.7452304e-12
       196   47.556578          11114   399            421            8537           1757           2.7971021e-12
       197   48.259824          11337   399            421            8714           1803           2.8521382e-12
       198   48.963169          11601   399            420            8931           1851           2.9109126e-12
       199   49.71669           11871   399            420            9156           1896           2.9737822e-12
       200   50.509931          12129   399            420            9372           1938           3.0392656e-12
       201   51.251761          12401   398            420            9597           1986           3.1068798e-12
       202   52.034915          12677   397            420            9818           2042           3.1760683e-12
       203   53.046631          12968   397            420            10063          2088           3.2476332e-12
       204   53.963028          13275   397            419            10323          2136           3.3219924e-12
       205   54.959835          13560   396            419            10554          2191           3.4023413e-12
       206   55.940151          13900   395            419            10849          2237           3.490416e-12 
       207   57.04516           14293   395            419            11196          2283           3.5875218e-12
       208   58.207793          14683   395            419            11537          2332           3.6936392e-12
       209   59.604133          15071   395            419            11880          2377           3.8096044e-12
       210   61.354395          15547   392            419            12304          2432           3.9317063e-12
       211   63.138198          15962   392            419            12654          2497           4.0587119e-12
       212   65.030496          16404   392            419            13030          2563           4.1870398e-12
       213   67.261076          16849   390            418            13415          2626           4.3154097e-12
       214   69.54671           17310   390            418            13807          2695           4.4401668e-12
       215   71.912421          17772   390            418            14203          2761           4.5711626e-12
       216   74.313436          18252   390            418            14621          2823           4.7061489e-12
       217   76.787703          18736   390            418            15033          2895           4.8420478e-12
       218   79.310877          19200   390            418            15435          2957           4.9778384e-12
       219   81.868864          19742   390            418            15909          3025           5.1228025e-12
       220   84.523764          20233   389            418            16335          3091           5.258278e-12 
       221   87.151698          20739   389            418            16770          3162           5.4065243e-12
       222   89.838514          21276   387            418            17225          3246           5.5545978e-12
       223   92.545676          21803   386            418            17676          3323           5.7025967e-12
       224   95.300722          22394   386            418            18184          3406           5.8654672e-12
       225   98.073438          23040   383            417            18729          3511           6.0353812e-12
       226   100.82276          23678   382            416            19264          3616           6.2163378e-12
       227   103.60035          24305   380            414            19799          3712           6.3920808e-12
       228   106.37895          24958   380            414            20356          3808           6.5480826e-12
       229   109.14571          25585   378            414            20887          3906           6.7208354e-12
       230   111.99762          26249   376            414            21469          3990           6.9054376e-12
       231   114.79686          26991   374            412            22104          4101           7.101023e-12 
       232   117.61593          27679   371            410            22654          4244           7.2962305e-12
       233   120.40605          28427   369            409            23248          4401           7.4876201e-12
       234   123.17866          29204   369            405            23881          4549           7.6986074e-12
       235   125.9568           29968   363            403            24505          4697           7.9282485e-12
       236   128.75166          30761   362            400            25186          4813           8.1367615e-12
       237   131.54635          31503   358            397            25764          4984           8.3281886e-12
       238   134.34799          32357   353            392            26439          5173           8.5431845e-12
       239   137.11278          33153   348            390            27045          5370           8.752044e-12 
       240   139.98993          33944   340            384            27617          5603           8.9373694e-12
       241   142.79454          34748   338            377            28191          5842           9.164825e-12 
       242   145.62785          35549   335            375            28737          6102           9.3667262e-12
       243   148.4847           36382   325            367            29288          6402           9.5820581e-12
       244   151.31191          37158   314            361            29778          6705           9.7625374e-12
       245   154.15212          37972   305            350            30315          7002           9.9516245e-12
       246   156.97804          38730   297            346            30766          7321           1.0124262e-11
       247   159.85759          39559   284            329            31290          7656           1.0301998e-11
       248   162.70871          40287   273            320            31727          7967           1.0464944e-11
       249   165.56351          40988   247            309            32118          8314           1.0611982e-11
       250   168.55175          41789   230            297            32617          8645           1.0760444e-11
       251   171.41393          42528   207            284            33047          8990           1.0906149e-11
       252   174.30989          43108   191            265            33333          9319           1.097765e-11 
       253   177.18087          43769   174            242            33756          9597           1.1108936e-11
       254   180.10015          44381   149            226            34130          9876           1.1202142e-11
       255   183.00458          44970   135            207            34510          10118          1.1277792e-11
       256   185.93649          45578   122            182            34926          10348          1.1337641e-11
       257   188.89007          46217   104            158            35432          10523          1.1425642e-11
       258   191.89256          46711   86             136            35786          10703          1.1476429e-11
       259   194.88928          47269   74             111            36230          10854          1.1553159e-11
       260   198.06982          47808   64             95             36632          11017          1.1590562e-11
       261   201.18542          48365   51             84             37050          11180          1.1625423e-11
       262   204.26505          48907   43             68             37396          11400          1.169155e-11 
       263   207.37398          49388   34             57             37677          11620          1.1697199e-11
       264   210.46452          49881   23             43             37948          11867          1.1741746e-11
       265   213.57121          50335   20             36             38169          12110          1.1762737e-11
       266   216.69445          50830   12             28             38380          12410          1.177e-11    
       267   219.82934          51294   10             23             38557          12704          1.1790995e-11
       268   222.98588          51691   9              22             38607          13053          1.1779417e-11
       269   226.16341          52136   7              15             38727          13387          1.1793851e-11
       270   229.53934          52569   6              11             38829          13723          1.1803242e-11
       271   232.77751          52974   5              8              38872          14089          1.1801671e-11
       272   236.0834           53407   4              3              38939          14461          1.1801739e-11
       273   239.38579          53773   3              2              38963          14805          1.1788378e-11
       274   242.70335          54301   2              2              39151          15146          1.1812794e-11
       275   246.01536          54576   2              2              39104          15468          1.1801699e-11
       276   249.39064          55020   2              2              39196          15820          1.1808762e-11
       277   252.80143          55412   2              2              39295          16113          1.1781421e-11
       278   256.16347          55832   2              2              39422          16406          1.1797035e-11
       279   259.57298          56197   2              2              39543          16650          1.1780905e-11
       280   263.17325          56577   2              2              39660          16913          1.1785556e-11
       281   266.65242          56891   2              2              39732          17155          1.1766948e-11
       282   270.14338          57281   2              2              39894          17383          1.176828e-11 
       283   273.68803          57736   2              2              40094          17638          1.1787028e-11
       284   277.23738          58016   2              2              40084          17928          1.1731115e-11
       285   280.78199          58398   2              2              40154          18240          1.1750776e-11
       286   284.38329          58740   2              2              40190          18546          1.1720478e-11
       287   288.02346          59060   2              2              40194          18862          1.1707137e-11
       288   291.6558           59369   2              2              40232          19133          1.1690551e-11
       289   295.32175          59737   2              2              40315          19418          1.1684939e-11
       290   299.14119          60129   2              2              40409          19716          1.1669852e-11
       291   302.82824          60406   2              2              40363          20039          1.165744e-11 
       292   306.53993          60875   2              2              40534          20337          1.166489e-11 
       293   310.31293          61141   2              2              40477          20660          1.1657556e-11
       294   314.0614           61573   2              2              40572          20997          1.1701051e-11
       295   317.88666          61903   2              2              40546          21353          1.1667306e-11
       296   321.71802          62234   2              2              40527          21703          1.1660613e-11
       297   325.56644          62657   2              2              40584          22069          1.1669019e-11
       298   329.43393          62912   2              2              40452          22456          1.1697754e-11
       299   333.33796          63176   2              2              40365          22807          1.1648142e-11
       300   337.38175          63591   2              2              40374          23213          1.166023e-11 
       301   341.24158          63956   2              2              40354          23598          1.1674765e-11
       302   345.19073          64322   2              2              40331          23987          1.1666976e-11
       303   349.06159          64583   2              2              40161          24418          1.1667255e-11
       304   353.10623          64970   2              2              40094          24872          1.1663683e-11
       305   357.14435          65215   2              2              39927          25284          1.1643665e-11
       306   361.04373          65572   2              2              39818          25750          1.1660736e-11
       307   365.04845          65890   2              2              39648          26238          1.1643742e-11
       308   369.08083          66235   2              2              39514          26717          1.1653822e-11
       309   373.20053          66572   2              2              39386          27182          1.165739e-11 
       310   377.28586          66976   2              2              39364          27608          1.1688447e-11
       311   381.40067          67219   2              2              39123          28092          1.167641e-11 
       312   385.47501          67514   2              2              38927          28583          1.1679998e-11
       313   389.65858          67819   2              2              38776          29039          1.1689563e-11
       314   393.82588          68171   2              2              38634          29533          1.1695867e-11
       315   398.00875          68541   2              2              38517          30020          1.1690514e-11
       316   402.15432          68865   2              2              38380          30481          1.1724141e-11
       317   406.40211          69094   2              2              38141          30949          1.1710165e-11
       318   410.62803          69379   2              2              37953          31422          1.1705484e-11
       319   414.85593          69711   2              2              37891          31816          1.1728714e-11
       320   419.27421          70025   2              2              37727          32294          1.1724262e-11
Loop time of 419.274 on 16 procs for 320 steps with 70025 atoms

98.3% CPU use with 16 MPI tasks x 1 OpenMP threads

MPI task timing breakdown:
Section |  min time  |  avg time  |  max time  |%varavg| %total
---------------------------------------------------------------
Pair    | 55.725     | 85.75      | 151.81     | 310.4 | 20.45
Neigh   | 9.2616     | 21.519     | 60.907     | 341.4 |  5.13
Comm    | 51.075     | 67.015     | 88.139     | 166.6 | 15.98
Output  | 2.2979     | 2.298      | 2.2981     |   0.0 |  0.55
Modify  | 112.44     | 222.66     | 277.3      | 339.0 | 53.11
Other   |            | 20.03      |            |       |  4.78

Nlocal:        4376.56 ave        9225 max        2963 min
Histogram: 8 3 1 2 0 0 0 0 0 2
Nghost:        3444.31 ave        5920 max        2369 min
Histogram: 8 2 0 1 1 0 2 0 0 2
Neighs:        30343.8 ave       42621 max       23354 min
Histogram: 2 4 2 2 2 2 0 0 0 2

Total # of neighbors = 485501
Ave neighs/atom = 6.9332524
Neighbor list builds = 3762
Dangerous builds = 337

Total wall time: 0:07:00
