LAMMPS (23 Jun 2022 - Update 4)
  using 1 OpenMP thread(s) per MPI task
package omp 0
using multi-threaded neighbor list subroutines
#-----------------------------------------------------------------------------#
#                NUFEB Simulation: Heterotrophic Biofilm Growth               #
#-----------------------------------------------------------------------------#


#-----------------------------System Settings---------------------------------#

units si                                    # using si units (m, s, kg)
atom_style      coccus                      # using nufeb coccus atom style
atom_modify     map array sort 10 0         # map array - find atoms using indices
		                            # sort every 10

boundary        pp pp ff                    # periodic boundaries in x and y
                                            # fixed boundary in z

newton          off                         # forces between local and ghost
                                            # atoms are computed in each
					     # processor without communication

processors      * * 1                       # processor grid

comm_modify     vel yes                     # communicate velocities for ghost atoms

read_data       atom_ch.in	             # read atom.in file which defines domain size
Reading data file ...
  orthogonal box = (0 0 0) to (6e-05 6e-05 6e-05)
  4 by 4 by 1 MPI processor grid
  reading atoms ...
  150 atoms
  read_data CPU = 0.031 seconds
                                            # and initial atoms


#--------------------Microbes and Functional Groups-------------------------#

group           CROSS1   type 1               # assign type 1,2 atoms to CROSS group
50 atoms in group CROSS1
group           CROSS2   type 2
50 atoms in group CROSS2
group		CHEATER  type 3
50 atoms in group CHEATER
group           dead     type 4
0 atoms in group dead

neighbor        5e-7 bin                   # setting neighbour skin distance and style

neigh_modify    check yes                  # rebuild neighbour list if any atom
                                           # had moved more than half the skin distance


#--------------------------Mesh Grid and Substrates--------------------------#

# defining grid sytle, substrate names, and grid size
grid_style      nufeb/chemostat 3 sub metab1 metab2 5e-6

# set diffusion boundary conditions and initial concentrations (liquid:kg/m3)
grid_modify     set sub      pp pp nd  1.8e-4
No /omp style for force computation currently active
grid_modify     set metab1   pp pp nd  1e-4
No /omp style for force computation currently active
grid_modify     set metab2   pp pp nd  1e-4
No /omp style for force computation currently active


#--------------------------Biological Processes-------------------------------#

# heterotrophs growth
fix growth_cross1 CROSS1 nufeb/growth/cross1 sub 3.5e-5 metab2 4e-3 metab1 growth 0.009 yield 0.6 decay 2.6e-6 metab1_exp 20

fix growth_cross2 CROSS2 nufeb/growth/cross2 sub 3.5e-5 metab1 4e-3 metab2 growth 0.009 yield 0.6 decay 2.6e-6 metab2_exp 20

fix growth_cheater CHEATER nufeb/growth/cheater sub 3.5e-5 metab1 1e-3 metab2 1e-3 growth 0.009 yield 0.6 decay 2.6e-6
# heterotrophs division, division diameter: 1.36e-6
fix div1 CROSS1 nufeb/division/coccus 1.36e-6 203
fix div2 CROSS2 nufeb/division/coccus 1.36e-6 506
fix div3 CHEATER nufeb/division/coccus 1.36e-6 1009

fix death1 CROSS1 nufeb/death/diameter dead 5.43e-7
fix death2 CROSS2 nufeb/death/diameter dead 5.43e-7
fix death3 CHEATER nufeb/death/diameter dead 5.43e-7

#---------------------------Physical Processes--------------------------------#

pair_style  gran/hooke/history 1e-4 NULL 1e-5 NULL 0.0 0    # pairwise interaction
pair_coeff  * *                                             # between atoms

# pairwise interaction between z-wall and atoms
fix wall all wall/gran hooke/history 1e-3 NULL 1e-4 NULL 0 0 zplane 0.0 1e-04

fix vis all viscous 1e-5                                    # viscous damping force

fix grav all gravity 9.81 vector 0.0 0.0 -1.0

fix nve all nve/limit 1e-7                                  # NVE integration with
                                                            # maximum distance limit


#---------------------------Post-Physical Processes---------------------------#

fix coeff_sub all nufeb/diffusion_coeff sub ratio 0.8       # defining diffusion coeff in the biofilm
fix coeff_metab1 all nufeb/diffusion_coeff metab1 ratio 0.8    # region is 80% of the value in liquid
fix coeff_metab2 all nufeb/diffusion_coeff metab2 ratio 0.8

#---------------------------Chemical Processes---------------------------------#

fix diff_sub all nufeb/diffusion_reaction sub 1e-9        # diffusion reaction for updating
fix diff_metab1 all nufeb/diffusion_reaction metab1 4e-9     # distribusion of substrate concentration
fix diff_metab2 all nufeb/diffusion_reaction metab2 4e-9

#--------------------------Computations and Outputs----------------------------#

variable mass equal "mass(all)"                             # total mass
variable ncross1 equal "count(CROSS1)"                      # total # of CROSS1
variable ncross2 equal "count(CROSS2)"                      # total # of CROSS2
variable ncheater equal "count(CHEATER)"
variable ndead equal "count(dead)"

shell mkdir vtk_NEPS_ch                                            # dump vtk files to /vtk folder
dump du1 all vtk 10 vtk_NEPS_ch/dump*.vtu id type diameter         # require build NUFEB with vtk option
dump du2 all grid/vtk 10 vtk_NEPS_ch/dump_%_*.vti con rea den gro

#dump du3 all movie 10 movie.avi type diameter view 80 60    # dump video
#dump_modify du3 acolor 1 blue acolor 2 lightgrey framerate 10


                                                            # dump hdf5 files to /hdf5 folder
#shell mkdir hdf5                                           # require build NUFEB with hdf5 option
#dump du3 all nufeb/hdf5 10 dump.h5 id type x y z vx vy vz fx fy fz radius conc reac

thermo_style custom step cpu atoms v_ncross1 v_ncross2 v_ncheater v_ndead v_mass     # screen and log outputs
thermo 1
thermo_modify   lost ignore

#-----------------------------------Run----------------------------------------#

# issue run command, define timesteps for physical (pairdt) and chemical (diffdt) processes
run_style nufeb diffdt 1e-4 difftol 1e-6 pairdt 1e-2 pairtol 1 pairmax 1000 diffmax 5000

timestep 12000                                               # define biological timesteps (1000s)

run 320                                                    # growing biofilm for 900x1000s
Generated 0 of 6 mixed pair_coeff terms from geometric mixing rule
Last active /omp style is pair_style gran/hooke/history/omp
Neighbor list info ...
  update every 1 steps, delay 10 steps, check yes
  max neighbors/atom: 2000, page size: 100000
  master list distance cutoff = 2.49e-06
  ghost atom cutoff = 2.49e-06
  binsize = 1.245e-06, bins = 49 49 49
  1 neighbor lists, perpetual/occasional/extra = 1 0 0
  (1) pair gran/hooke/history/omp, perpetual
      attributes: half, newton off, size, history, omp
      pair build: half/size/bin/newtoff/omp
      stencil: full/bin/3d
      bin: standard
Per MPI rank memory allocation (min/avg/max) = 11.02 | 11.02 | 11.02 Mbytes
   Step          CPU          Atoms      v_ncross1      v_ncross2      v_ncheater      v_ndead         v_mass    
         0   0                    150   50             50             50             0              1.3295396e-13
         1   0.38278801           273   96             91             86             0              1.9616795e-13
         2   0.75562093           436   151            149            136            0              2.2415147e-13
         3   1.059822             542   172            199            171            0              2.4509833e-13
         4   1.3433784            586   182            212            192            0              2.6365743e-13
         5   1.5435793            632   203            227            202            0              2.8073684e-13
         6   1.7166151            668   213            242            213            0              2.9682507e-13
         7   1.8372992            699   224            254            221            0              3.1215299e-13
         8   1.9762144            728   229            265            234            0              3.2664454e-13
         9   2.1225372            754   240            270            244            0              3.4059807e-13
        10   2.2781119            795   252            279            264            0              3.5391848e-13
        11   2.3978064            832   256            295            281            0              3.6644338e-13
        12   2.4910443            856   264            302            290            0              3.7832361e-13
        13   2.5860834            880   269            308            303            0              3.8970632e-13
        14   2.670525             914   281            318            315            0              4.005156e-13 
        15   2.7588405            940   288            324            328            0              4.1086546e-13
        16   2.8472306            966   294            327            345            0              4.207973e-13 
        17   2.923355             993   299            332            362            0              4.3030828e-13
        18   3.002682            1022   310            338            374            0              4.3939616e-13
        19   3.1072128           1041   315            341            385            0              4.481508e-13 
        20   3.2003472           1062   320            345            397            0              4.5650152e-13
        21   3.2583989           1078   324            348            406            0              4.644251e-13 
        22   3.3149048           1101   328            355            418            0              4.7203544e-13
        23   3.3723901           1130   334            359            437            0              4.7926685e-13
        24   3.4283671           1146   337            361            448            0              4.8617081e-13
        25   3.490662            1160   340            365            455            0              4.9272922e-13
        26   3.5481867           1174   346            367            461            0              4.9896869e-13
        27   3.5963835           1198   350            369            479            0              5.0493734e-13
        28   3.6494042           1216   354            372            490            0              5.1065392e-13
        29   3.7055536           1235   358            376            501            0              5.161175e-13 
        30   12.2271             1248   360            377            511            0              5.2122951e-13
        31   12.289969           1268   364            378            526            0              5.2609301e-13
        32   12.339214           1285   368            379            538            0              5.3074827e-13
        33   12.385088           1296   368            382            546            0              5.3516424e-13
        34   12.42979            1308   371            382            555            0              5.39369e-13  
        35   12.481865           1319   373            383            563            0              5.4337476e-13
        36   12.524902           1345   378            386            581            0              5.4725062e-13
        37   12.563063           1356   381            388            587            0              5.5092658e-13
        38   12.626712           1374   385            388            601            0              5.5442166e-13
        39   12.717607           1382   386            391            605            0              5.5789907e-13
        40   12.803494           1391   387            391            613            0              5.6148041e-13
        41   12.885285           1398   391            391            616            0              5.6505459e-13
        42   12.940474           1417   392            392            633            0              5.6860835e-13
        43   13.021345           1430   392            395            643            0              5.7190256e-13
        44   13.112976           1440   395            396            649            0              5.7519673e-13
        45   13.194567           1447   395            396            656            0              5.7861671e-13
        46   13.300708           1460   397            397            666            0              5.8205519e-13
        47   13.411389           1471   398            397            676            0              5.8571017e-13
        48   13.505553           1480   399            397            684            0              5.8959273e-13
        49   13.641318           1493   400            397            696            0              5.9349366e-13
        50   25.247265           1513   403            397            713            0              5.9773211e-13
        51   25.367856           1526   405            397            724            0              6.0198339e-13
        52   25.476427           1545   405            397            743            0              6.0635272e-13
        53   25.586339           1559   407            397            755            0              6.1074449e-13
        54   25.698411           1572   407            397            768            0              6.1525828e-13
        55   25.796113           1591   409            397            784            1              6.1985145e-13
        56   25.887522           1608   412            398            796            2              6.2446519e-13
        57   25.974527           1619   412            398            806            3              6.2899852e-13
        58   26.058157           1635   413            398            817            7              6.3344327e-13
        59   26.129766           1654   413            398            836            7              6.3778448e-13
        60   26.220398           1675   413            398            853            11             6.4199003e-13
        61   26.287769           1689   413            398            860            18             6.4607246e-13
        62   26.351258           1707   417            399            864            27             6.5003097e-13
        63   26.404079           1718   418            399            869            32             6.5382757e-13
        64   26.456901           1738   419            399            884            36             6.5744003e-13
        65   26.509335           1744   419            400            880            45             6.6089745e-13
        66   26.553359           1765   421            401            892            51             6.6422081e-13
        67   26.599677           1779   421            401            902            55             6.6741551e-13
        68   26.672083           1793   422            401            905            65             6.7046654e-13
        69   26.770671           1806   423            401            914            68             6.7354222e-13
        70   26.899923           1821   423            402            923            73             6.7674403e-13
        71   27.034376           1834   425            403            927            79             6.7999807e-13
        72   27.221955           1847   426            403            931            87             6.8367989e-13
        73   27.399561           1864   428            403            934            99             6.8784271e-13
        74   27.594159           1876   428            403            941            104            6.9243706e-13
        75   27.776606           1894   428            403            950            113            6.9750502e-13
        76   27.973471           1906   428            403            953            122            7.0290305e-13
        77   28.151726           1932   430            403            970            129            7.0871274e-13
        78   28.313851           1951   431            403            979            138            7.1469311e-13
        79   28.451998           1975   431            403            1001           140            7.2070999e-13
        80   28.601028           1994   432            403            1013           146            7.266203e-13 
        81   28.70973            2020   433            403            1035           149            7.3244569e-13
        82   28.813654           2038   434            403            1050           151            7.3807593e-13
        83   28.916772           2063   434            403            1069           157            7.4348577e-13
        84   29.008065           2082   435            404            1083           160            7.4879057e-13
        85   29.105739           2105   435            404            1105           161            7.5386532e-13
        86   29.205944           2131   435            404            1129           163            7.5883607e-13
        87   29.299426           2148   437            404            1142           165            7.6364782e-13
        88   29.432436           2163   437            404            1152           170            7.6830865e-13
        89   29.589844           2187   437            404            1173           173            7.7303591e-13
        90   29.794912           2205   437            404            1188           176            7.7824822e-13
        91   30.041349           2223   437            404            1202           180            7.8362854e-13
        92   30.30122            2253   437            404            1229           183            7.9012621e-13
        93   30.603146           2283   437            404            1254           188            7.9718633e-13
        94   30.89761            2313   437            404            1283           189            8.0543436e-13
        95   31.185709           2349   437            404            1315           193            8.1449261e-13
        96   31.461181           2385   437            404            1349           195            8.2445013e-13
        97   31.712298           2421   437            404            1379           201            8.3477317e-13
        98   31.920984           2468   437            403            1420           208            8.4534924e-13
        99   32.135434           2509   438            403            1457           211            8.5592921e-13
       100   32.371714           2545   438            403            1490           214            8.6660987e-13
       101   32.593537           2594   438            402            1534           220            8.7723236e-13
       102   32.795349           2642   439            401            1574           228            8.8802113e-13
       103   33.074789           2690   439            401            1619           231            8.9884759e-13
       104   33.309662           2740   439            401            1662           238            9.1014124e-13
       105   33.599255           2791   439            401            1710           241            9.217852e-13 
       106   33.93135            2834   437            401            1749           247            9.3376753e-13
       107   34.258388           2887   436            401            1796           254            9.465387e-13 
       108   34.596055           2952   436            401            1858           257            9.6000871e-13
       109   34.923908           3012   436            401            1909           266            9.7421548e-13
       110   35.24005            3070   436            400            1959           275            9.8868032e-13
       111   35.52982            3120   435            400            2002           283            1.0032425e-12
       112   35.798095           3173   435            399            2049           290            1.0177981e-12
       113   36.056903           3236   434            399            2105           298            1.0321809e-12
       114   36.346941           3304   434            397            2172           301            1.0464695e-12
       115   36.619478           3368   433            397            2231           307            1.0609426e-12
       116   36.91247            3423   433            397            2281           312            1.0750829e-12
       117   37.218256           3489   433            397            2343           316            1.0893511e-12
       118   37.53041            3560   433            397            2410           320            1.1038248e-12
       119   37.889614           3618   433            397            2466           322            1.1185218e-12
       120   38.299961           3681   433            397            2526           325            1.1338157e-12
       121   38.673252           3755   433            397            2597           328            1.1502792e-12
       122   39.051202           3822   432            396            2663           331            1.1672545e-12
       123   39.429574           3904   432            396            2743           333            1.1848742e-12
       124   39.809248           3970   432            396            2807           335            1.2028486e-12
       125   40.141327           4045   432            396            2882           335            1.221279e-12 
       126   40.457381           4124   432            396            2960           336            1.2394385e-12
       127   40.790788           4197   432            396            3033           336            1.2572603e-12
       128   41.128356           4279   432            396            3114           337            1.2750328e-12
       129   41.434775           4368   432            396            3200           340            1.292507e-12 
       130   41.894861           4439   432            396            3271           340            1.3095917e-12
       131   42.286112           4514   432            396            3346           340            1.3268446e-12
       132   42.67854            4602   432            396            3433           341            1.3441952e-12
       133   43.084073           4669   432            396            3500           341            1.3623635e-12
       134   43.503755           4752   432            396            3580           344            1.3810878e-12
       135   43.921845           4832   432            396            3657           347            1.4009135e-12
       136   44.339206           4927   432            396            3750           349            1.4215978e-12
       137   44.747187           5013   432            396            3831           354            1.4428228e-12
       138   45.163404           5122   432            396            3931           363            1.4642487e-12
       139   45.566086           5198   432            396            4000           370            1.4855979e-12
       140   45.965633           5289   432            396            4078           383            1.5066462e-12
       141   46.361491           5391   432            396            4165           398            1.527439e-12 
       142   46.780755           5477   432            396            4231           418            1.5478877e-12
       143   47.196854           5562   432            396            4291           443            1.5683181e-12
       144   47.631417           5674   432            396            4376           470            1.5891946e-12
       145   48.070677           5775   432            396            4455           492            1.6107694e-12
       146   48.529803           5866   432            396            4515           523            1.633138e-12 
       147   48.982422           5974   432            396            4589           557            1.6568586e-12
       148   49.422894           6093   432            396            4681           584            1.6817334e-12
       149   49.862615           6193   432            396            4740           625            1.7080349e-12
       150   50.341693           6313   432            395            4829           657            1.7352838e-12
       151   50.806332           6431   432            395            4909           695            1.7631428e-12
       152   51.264044           6550   432            395            5005           718            1.790994e-12 
       153   51.733178           6685   432            395            5111           747            1.8192669e-12
       154   52.190574           6813   432            393            5206           782            1.8473401e-12
       155   52.652647           6939   431            392            5288           828            1.8752296e-12
       156   53.133473           7070   430            392            5395           853            1.9033722e-12
       157   53.628087           7201   430            392            5483           896            1.9322039e-12
       158   54.146062           7335   430            392            5588           925            1.9620321e-12
       159   54.643959           7478   430            391            5709           948            1.9926033e-12
       160   55.202403           7623   430            391            5819           983            2.0238071e-12
       161   55.697782           7772   430            391            5934           1017           2.0562086e-12
       162   56.184036           7922   430            391            6055           1046           2.0897805e-12
       163   56.683412           8074   430            391            6172           1081           2.1239524e-12
       164   57.224496           8218   430            391            6283           1114           2.1586458e-12
       165   57.744051           8365   430            391            6402           1142           2.194074e-12 
       166   58.274724           8533   430            391            6526           1186           2.2294809e-12
       167   58.81646            8704   430            391            6651           1232           2.2657566e-12
       168   59.338669           8873   429            391            6790           1263           2.3025038e-12
       169   59.923705           9063   428            390            6941           1304           2.340169e-12 
       170   60.52698            9237   428            390            7070           1349           2.3798819e-12
       171   61.076759           9437   428            390            7231           1388           2.4212804e-12
       172   61.646995           9617   427            389            7370           1431           2.4646136e-12
       173   62.237888           9816   427            389            7527           1473           2.5095986e-12
       174   62.823682          10031   427            389            7689           1526           2.5559468e-12
       175   63.397251          10229   427            389            7844           1569           2.6031969e-12
       176   63.97907           10441   427            389            8002           1623           2.6511347e-12
       177   64.665158          10668   427            389            8181           1671           2.6992959e-12
       178   65.322663          10884   427            389            8342           1726           2.7475926e-12
       179   65.956609          11095   427            389            8505           1774           2.7969656e-12
       180   66.674258          11320   427            388            8688           1817           2.8476414e-12
       181   67.400341          11574   427            388            8898           1861           2.9007438e-12
       182   68.120919          11802   427            388            9078           1909           2.9566392e-12
       183   68.900089          12048   427            388            9278           1955           3.0159363e-12
       184   69.631944          12302   427            388            9482           2005           3.0782896e-12
       185   70.420259          12563   427            388            9684           2064           3.1436639e-12
       186   71.211794          12838   426            388            9919           2105           3.2107315e-12
       187   72.128309          13124   426            388            10143          2167           3.2797208e-12
       188   73.076592          13406   426            388            10380          2212           3.3521238e-12
       189   74.091499          13711   426            388            10645          2252           3.4287897e-12
       190   75.216804          14012   426            388            10893          2305           3.511269e-12 
       191   76.404375          14358   426            388            11194          2350           3.6031717e-12
       192   77.56286           14726   426            387            11520          2393           3.703027e-12 
       193   78.824674          15102   426            387            11837          2452           3.812102e-12 
       194   80.142976          15521   426            387            12212          2496           3.9302009e-12
       195   81.584251          15942   426            387            12575          2554           4.055946e-12 
       196   83.471861          16418   425            386            12980          2627           4.1858438e-12
       197   85.379572          16894   425            386            13389          2694           4.3216492e-12
       198   87.527598          17402   425            386            13846          2745           4.4592934e-12
       199   89.709075          17906   425            386            14296          2799           4.5940771e-12
       200   92.104763          18379   425            385            14717          2852           4.7314398e-12
       201   94.54352           18895   425            385            15177          2908           4.8680264e-12
       202   97.003099          19429   423            385            15636          2985           5.0133767e-12
       203   99.481827          19969   423            385            16103          3058           5.1674509e-12
       204   102.02553          20514   423            384            16570          3137           5.3119744e-12
       205   104.62999          21066   423            383            17034          3226           5.456183e-12 
       206   107.24017          21589   423            383            17460          3323           5.5905183e-12
       207   109.89631          22151   423            383            17946          3399           5.7392785e-12
       208   112.5707           22721   422            381            18418          3500           5.8954936e-12
       209   115.25967          23313   422            381            18886          3624           6.0592334e-12
       210   118.07648          23951   421            379            19413          3738           6.2246389e-12
       211   120.83667          24581   420            379            19931          3851           6.388368e-12 
       212   123.54337          25200   420            378            20449          3953           6.5594636e-12
       213   126.23663          25838   419            376            20961          4082           6.7389058e-12
       214   128.95817          26553   419            375            21557          4202           6.9256469e-12
       215   131.65615          27245   417            375            22107          4346           7.099241e-12 
       216   134.37028          27934   415            372            22608          4539           7.3046756e-12
       217   137.1077           28598   412            371            23114          4701           7.4899427e-12
       218   139.82003          29376   410            368            23726          4872           7.6918527e-12
       219   142.54269          30136   408            365            24297          5066           7.8833234e-12
       220   145.36786          30895   404            361            24862          5268           8.101277e-12 
       221   148.09377          31728   401            358            25497          5472           8.3181413e-12
       222   150.82447          32466   397            353            26032          5684           8.5218417e-12
       223   153.58009          33248   394            350            26583          5921           8.7095984e-12
       224   156.31972          34103   392            345            27255          6111           8.9403396e-12
       225   159.07858          34903   387            340            27836          6340           9.1354869e-12
       226   161.81774          35701   382            331            28398          6590           9.3429107e-12
       227   164.57358          36497   377            327            28951          6842           9.5245907e-12
       228   167.30941          37301   370            317            29504          7110           9.7231219e-12
       229   170.076            38044   362            304            30003          7375           9.9123458e-12
       230   172.94952          38912   350            296            30638          7628           1.0087553e-11
       231   175.74977          39714   339            284            31215          7876           1.0270482e-11
       232   178.53022          40440   328            266            31717          8129           1.0436707e-11
       233   181.33973          41131   317            249            32192          8373           1.0599008e-11
       234   184.13019          41946   301            237            32806          8602           1.0736077e-11
       235   186.94643          42644   288            223            33262          8871           1.0863454e-11
       236   189.75348          43320   264            203            33706          9147           1.0973669e-11
       237   192.61867          44012   241            185            34170          9416           1.1104695e-11
       238   195.4863           44597   210            169            34556          9662           1.118827e-11 
       239   198.36383          45302   188            146            35053          9915           1.1281814e-11
       240   201.36875          45804   166            131            35359          10148          1.1339851e-11
       241   204.24401          46469   139            106            35814          10410          1.1445015e-11
       242   207.1804           47072   119            86             36197          10670          1.1528438e-11
       243   210.14297          47626   99             70             36523          10934          1.1561886e-11
       244   213.10669          48171   81             60             36813          11217          1.1610296e-11
       245   216.06936          48658   65             52             37068          11473          1.166884e-11 
       246   219.04326          49168   53             44             37324          11747          1.169145e-11 
       247   222.02802          49771   44             31             37666          12030          1.174439e-11 
       248   225.01627          50272   35             23             37883          12331          1.1774996e-11
       249   228.0512           50782   26             17             38107          12632          1.1801661e-11
       250   231.22696          51130   18             12             38142          12958          1.1804813e-11
       251   234.26746          51606   14             5              38332          13255          1.1802368e-11
       252   237.30918          52060   10             4              38454          13592          1.1822959e-11
       253   240.40663          52539   6              4              38640          13889          1.1834089e-11
       254   243.49438          52871   5              2              38702          14162          1.1812204e-11
       255   246.59089          53383   4              2              38924          14453          1.183755e-11 
       256   249.71685          53774   2              2              39017          14753          1.1842695e-11
       257   252.86182          54223   1              2              39171          15049          1.1856684e-11
       258   256.08624          54572   1              1              39235          15335          1.1804314e-11
       259   259.28364          54919   1              0              39280          15638          1.1797257e-11
       260   262.63476          55332   1              0              39409          15922          1.1810575e-11
       261   265.88484          55741   1              0              39555          16185          1.1815102e-11
       262   269.17583          56191   1              0              39694          16496          1.1792797e-11
       263   272.49931          56507   1              0              39734          16772          1.178684e-11 
       264   275.84298          56989   1              0              39919          17069          1.1793871e-11
       265   279.20982          57221   1              0              39859          17361          1.1760046e-11
       266   282.59603          57674   1              0              39982          17691          1.1784627e-11
       267   286.03721          58103   1              0              40109          17993          1.1782982e-11
       268   289.54527          58409   1              0              40112          18296          1.1752987e-11
       269   293.00978          58807   1              0              40188          18618          1.1749339e-11
       270   296.67583          59177   1              0              40244          18932          1.1760853e-11
       271   300.2156           59512   1              0              40294          19217          1.1743968e-11
       272   303.74345          59923   1              0              40415          19507          1.1735762e-11
       273   307.34242          60233   1              0              40443          19789          1.1739561e-11
       274   310.91969          60627   1              0              40500          20126          1.174654e-11 
       275   314.563            60988   1              0              40552          20435          1.1740175e-11
       276   318.20078          61339   1              0              40565          20773          1.176191e-11 
       277   321.90524          61660   1              0              40567          21092          1.172108e-11 
       278   325.62698          61994   1              0              40558          21435          1.1711463e-11
       279   329.34168          62431   1              0              40658          21772          1.1736239e-11
       280   333.24977          62676   1              0              40580          22095          1.1703081e-11
       281   337.02778          63035   1              0              40585          22449          1.1697309e-11
       282   340.78685          63335   1              0              40526          22808          1.1691558e-11
       283   344.62376          63654   1              0              40476          23177          1.1661814e-11
       284   348.44273          63987   1              0              40406          23580          1.1684563e-11
       285   352.26707          64351   1              0              40384          23966          1.1676309e-11
       286   356.11974          64691   1              0              40323          24367          1.1695323e-11
       287   360.04122          65009   1              0              40200          24808          1.1671224e-11
       288   364.01189          65314   1              0              40081          25232          1.1674939e-11
       289   367.77305          65709   1              0              40041          25667          1.1691355e-11
       290   371.95499          66064   1              0              39947          26116          1.1708479e-11
       291   375.94147          66299   1              0              39708          26590          1.1680757e-11
       292   379.81638          66705   1              0              39674          27030          1.1698875e-11
       293   383.77806          67018   1              0              39507          27510          1.1720948e-11
       294   387.93663          67385   1              0              39379          28005          1.1715323e-11
       295   391.94309          67647   1              0              39170          28476          1.1717028e-11
       296   395.92303          67950   1              0              39029          28920          1.1719798e-11
       297   399.91548          68358   1              0              38966          29391          1.1735008e-11
       298   404.14244          68614   1              0              38737          29876          1.1700761e-11
       299   408.34288          68953   1              0              38602          30350          1.1709465e-11
       300   412.62781          69274   1              0              38445          30828          1.1745526e-11
       301   416.7363           69528   1              0              38244          31283          1.1726346e-11
       302   420.84178          69933   1              0              38209          31723          1.1757157e-11
       303   425.02135          70228   1              0              38029          32198          1.1760256e-11
       304   429.29175          70541   1              0              37823          32717          1.1770262e-11
       305   433.69788          70812   1              0              37611          33200          1.1743096e-11
       306   437.88613          71194   1              0              37565          33628          1.1788272e-11
       307   442.15385          71436   1              0              37351          34084          1.1783533e-11
       308   446.44448          71813   1              0              37336          34476          1.1815846e-11
       309   450.82166          72095   1              0              37217          34877          1.1801094e-11
       310   455.36707          72377   1              0              37072          35304          1.1794375e-11
       311   459.75064          72638   1              0              36914          35723          1.1808527e-11
       312   464.13954          72990   1              0              36862          36127          1.182337e-11 
       313   468.59053          73281   1              0              36724          36556          1.1830575e-11
       314   473.03674          73638   1              0              36691          36946          1.1860233e-11
       315   477.60314          73935   1              0              36586          37348          1.1855768e-11
       316   482.13121          74236   1              0              36479          37756          1.1853833e-11
       317   486.70644          74547   1              0              36436          38110          1.1897014e-11
       318   491.29521          74795   1              0              36339          38455          1.188349e-11 
       319   495.94064          75126   1              0              36307          38818          1.1894251e-11
       320   500.7674           75451   1              0              36245          39205          1.1919988e-11
Loop time of 500.768 on 16 procs for 320 steps with 75451 atoms

96.8% CPU use with 16 MPI tasks x 1 OpenMP threads

MPI task timing breakdown:
Section |  min time  |  avg time  |  max time  |%varavg| %total
---------------------------------------------------------------
Pair    | 74.1       | 110.98     | 180.59     | 300.8 | 22.16
Neigh   | 12.612     | 27.491     | 70.129     | 333.4 |  5.49
Comm    | 54.871     | 71.482     | 93.163     | 142.4 | 14.27
Output  | 22.196     | 22.196     | 22.197     |   0.0 |  4.43
Modify  | 125.9      | 246.82     | 310.2      | 346.6 | 49.29
Other   |            | 21.8       |            |       |  4.35

Nlocal:        4715.69 ave        9495 max        3220 min
Histogram: 8 2 2 0 2 0 0 0 0 2
Nghost:        3692.44 ave        6272 max        2544 min
Histogram: 7 2 1 2 0 0 2 0 0 2
Neighs:        35189.3 ave       48293 max       27633 min
Histogram: 2 4 2 2 2 2 0 0 0 2

Total # of neighbors = 563029
Ave neighs/atom = 7.4621808
Neighbor list builds = 4174
Dangerous builds = 363

Total wall time: 0:08:21
