LAMMPS (23 Jun 2022 - Update 4)
  using 1 OpenMP thread(s) per MPI task
package omp 0
using multi-threaded neighbor list subroutines
#-----------------------------------------------------------------------------#
#                NUFEB Simulation: Heterotrophic Biofilm Growth               #
#-----------------------------------------------------------------------------#


#-----------------------------System Settings---------------------------------#

units si                                    # using si units (m, s, kg)
atom_style      coccus                      # using nufeb coccus atom style
atom_modify     map array sort 10 0         # map array - find atoms using indices
		                            # sort every 10

boundary        pp pp ff                    # periodic boundaries in x and y
                                            # fixed boundary in z

newton          off                         # forces between local and ghost
                                            # atoms are computed in each
					     # processor without communication

processors      * * 1                       # processor grid

comm_modify     vel yes                     # communicate velocities for ghost atoms

read_data       atom_ch.in	             # read atom.in file which defines domain size
Reading data file ...
  orthogonal box = (0 0 0) to (6e-05 6e-05 6e-05)
  4 by 4 by 1 MPI processor grid
  reading atoms ...
  150 atoms
  read_data CPU = 0.015 seconds
                                            # and initial atoms


#--------------------Microbes and Functional Groups-------------------------#

group           CROSS1   type 1               # assign type 1,2 atoms to CROSS group
50 atoms in group CROSS1
group           CROSS2   type 2
50 atoms in group CROSS2
group		CHEATER  type 3
50 atoms in group CHEATER
group           dead     type 4
0 atoms in group dead

neighbor        5e-7 bin                   # setting neighbour skin distance and style

neigh_modify    check yes                  # rebuild neighbour list if any atom
                                           # had moved more than half the skin distance


#--------------------------Mesh Grid and Substrates--------------------------#

# defining grid sytle, substrate names, and grid size
grid_style      nufeb/chemostat 3 sub metab1 metab2 5e-6

# set diffusion boundary conditions and initial concentrations (liquid:kg/m3)
grid_modify     set sub      pp pp nd  1.8e-4
No /omp style for force computation currently active
grid_modify     set metab1   pp pp nd  1e-4
No /omp style for force computation currently active
grid_modify     set metab2   pp pp nd  1e-4
No /omp style for force computation currently active


#--------------------------Biological Processes-------------------------------#

# heterotrophs growth
fix growth_cross1 CROSS1 nufeb/growth/cross1 sub 3.5e-5 metab2 4e-3 metab1 growth 0.009 yield 0.6 decay 2.6e-6 metab1_exp 20

fix growth_cross2 CROSS2 nufeb/growth/cross2 sub 3.5e-5 metab1 4e-3 metab2 growth 0.009 yield 0.6 decay 2.6e-6 metab2_exp 20

fix growth_cheater CHEATER nufeb/growth/cheater sub 3.5e-5 metab1 1e-3 metab2 1e-3 growth 0.009 yield 0.6 decay 2.6e-6
# heterotrophs division, division diameter: 1.36e-6
fix div1 CROSS1 nufeb/division/coccus 1.36e-6 1472
fix div2 CROSS2 nufeb/division/coccus 1.36e-6 5582
fix div3 CHEATER nufeb/division/coccus 1.36e-6 12430

fix death1 CROSS1 nufeb/death/diameter dead 5.43e-7
fix death2 CROSS2 nufeb/death/diameter dead 5.43e-7
fix death3 CHEATER nufeb/death/diameter dead 5.43e-7

#---------------------------Physical Processes--------------------------------#

pair_style  gran/hooke/history 1e-4 NULL 1e-5 NULL 0.0 0    # pairwise interaction
pair_coeff  * *                                             # between atoms

# pairwise interaction between z-wall and atoms
fix wall all wall/gran hooke/history 1e-3 NULL 1e-4 NULL 0 0 zplane 0.0 1e-04

fix vis all viscous 1e-5                                    # viscous damping force

fix grav all gravity 9.81 vector 0.0 0.0 -1.0

fix nve all nve/limit 1e-7                                  # NVE integration with
                                                            # maximum distance limit


#---------------------------Post-Physical Processes---------------------------#

fix coeff_sub all nufeb/diffusion_coeff sub ratio 0.8       # defining diffusion coeff in the biofilm
fix coeff_metab1 all nufeb/diffusion_coeff metab1 ratio 0.8    # region is 80% of the value in liquid
fix coeff_metab2 all nufeb/diffusion_coeff metab2 ratio 0.8

#---------------------------Chemical Processes---------------------------------#

fix diff_sub all nufeb/diffusion_reaction sub 1e-9        # diffusion reaction for updating
fix diff_metab1 all nufeb/diffusion_reaction metab1 4e-9     # distribusion of substrate concentration
fix diff_metab2 all nufeb/diffusion_reaction metab2 4e-9

#--------------------------Computations and Outputs----------------------------#

variable mass equal "mass(all)"                             # total mass
variable ncross1 equal "count(CROSS1)"                      # total # of CROSS1
variable ncross2 equal "count(CROSS2)"                      # total # of CROSS2
variable ncheater equal "count(CHEATER)"
variable ndead equal "count(dead)"

shell mkdir vtk_NEPS_ch                                            # dump vtk files to /vtk folder
dump du1 all vtk 10 vtk_NEPS_ch/dump*.vtu id type diameter         # require build NUFEB with vtk option
dump du2 all grid/vtk 10 vtk_NEPS_ch/dump_%_*.vti con rea den gro

#dump du3 all movie 10 movie.avi type diameter view 80 60    # dump video
#dump_modify du3 acolor 1 blue acolor 2 lightgrey framerate 10


                                                            # dump hdf5 files to /hdf5 folder
#shell mkdir hdf5                                           # require build NUFEB with hdf5 option
#dump du3 all nufeb/hdf5 10 dump.h5 id type x y z vx vy vz fx fy fz radius conc reac

thermo_style custom step cpu atoms v_ncross1 v_ncross2 v_ncheater v_ndead v_mass     # screen and log outputs
thermo 1
thermo_modify   lost ignore

#-----------------------------------Run----------------------------------------#

# issue run command, define timesteps for physical (pairdt) and chemical (diffdt) processes
run_style nufeb diffdt 1e-4 difftol 1e-6 pairdt 1e-2 pairtol 1 pairmax 1000 diffmax 5000

timestep 12000                                               # define biological timesteps (1000s)

run 320                                                    # growing biofilm for 900x1000s
Generated 0 of 6 mixed pair_coeff terms from geometric mixing rule
Last active /omp style is pair_style gran/hooke/history/omp
Neighbor list info ...
  update every 1 steps, delay 10 steps, check yes
  max neighbors/atom: 2000, page size: 100000
  master list distance cutoff = 2.49e-06
  ghost atom cutoff = 2.49e-06
  binsize = 1.245e-06, bins = 49 49 49
  1 neighbor lists, perpetual/occasional/extra = 1 0 0
  (1) pair gran/hooke/history/omp, perpetual
      attributes: half, newton off, size, history, omp
      pair build: half/size/bin/newtoff/omp
      stencil: full/bin/3d
      bin: standard
Per MPI rank memory allocation (min/avg/max) = 11.02 | 11.02 | 11.02 Mbytes
   Step          CPU          Atoms      v_ncross1      v_ncross2      v_ncheater      v_ndead         v_mass    
         0   0                    150   50             50             50             0              1.3295396e-13
         1   0.382976             273   96             91             86             0              1.9616795e-13
         2   0.75683203           431   148            148            135            0              2.2370283e-13
         3   1.0748347            543   178            199            166            0              2.4484946e-13
         4   1.3654825            583   187            212            184            0              2.6341659e-13
         5   1.5603418            617   192            229            196            0              2.8063051e-13
         6   1.7219344            660   211            241            208            0              2.9692993e-13
         7   1.8510599            693   220            253            220            0              3.125242e-13 
         8   1.9793169            727   228            265            234            0              3.2702795e-13
         9   2.0995628            765   239            278            248            0              3.4083764e-13
        10   2.2128205            799   251            284            264            0              3.5401076e-13
        11   2.3290867            826   258            292            276            0              3.6652592e-13
        12   2.4353753            853   264            300            289            0              3.7829563e-13
        13   2.5301594            881   273            309            299            0              3.8932875e-13
        14   2.6122075            907   279            318            310            0              3.9984601e-13
        15   2.6917715            932   286            322            324            0              4.0969802e-13
        16   2.7583851            967   295            331            341            0              4.1905376e-13
        17   2.8450422            997   305            336            356            0              4.2804326e-13
        18   2.9140815           1019   309            342            368            0              4.3659183e-13
        19   2.9857702           1036   311            350            375            0              4.4488827e-13
        20   3.0726301           1061   317            355            389            0              4.5285395e-13
        21   3.1483956           1079   321            358            400            0              4.6048645e-13
        22   3.2148683           1095   323            359            413            0              4.6783086e-13
        23   3.2980147           1117   329            364            424            0              4.7486903e-13
        24   3.3628369           1133   334            366            433            0              4.8180056e-13
        25   3.425222            1152   339            371            442            0              4.8833978e-13
        26   3.5178776           1176   345            372            459            0              4.946633e-13 
        27   3.57514             1189   346            375            468            0              5.0086413e-13
        28   3.6381981           1202   349            376            477            0              5.0680674e-13
        29   3.6936034           1220   351            379            490            0              5.1250824e-13
        30   3.7604262           1238   354            381            503            0              5.1799122e-13
        31   3.8154129           1252   359            381            512            0              5.2326837e-13
        32   3.867099            1263   360            383            520            0              5.2833001e-13
        33   3.9233037           1291   365            387            539            0              5.3321188e-13
        34   3.9746543           1304   365            390            549            0              5.3788486e-13
        35   4.023331            1317   368            390            559            0              5.4239687e-13
        36   4.0714103           1336   369            396            571            0              5.4669105e-13
        37   4.1113004           1349   369            397            583            0              5.5071194e-13
        38   4.1555559           1359   371            399            589            0              5.5454356e-13
        39   4.2015649           1372   372            401            599            0              5.5813597e-13
        40   4.2870824           1391   373            403            615            0              5.6166193e-13
        41   4.3441235           1404   375            404            625            0              5.6491331e-13
        42   4.3888999           1412   378            404            630            0              5.6795123e-13
        43   4.4390591           1417   379            405            633            0              5.7084018e-13
        44   4.4853688           1426   379            407            640            0              5.7343517e-13
        45   4.5292033           1434   379            408            647            0              5.7586517e-13
        46   4.5727076           1446   381            410            655            0              5.7813234e-13
        47   4.626072            1457   382            411            664            0              5.8022309e-13
        48   4.6828921           1465   384            412            669            0              5.8238135e-13
        49   4.7216071           1475   385            413            677            0              5.8447494e-13
        50   4.7925919           1480   388            414            678            0              5.8651113e-13
        51   4.8294669           1492   389            415            688            0              5.8846098e-13
        52   4.874544            1499   390            415            694            0              5.9019181e-13
        53   4.9278831           1504   390            415            699            0              5.9194628e-13
        54   5.001626            1515   392            416            707            0              5.9377684e-13
        55   5.0789851           1521   392            417            712            0              5.9572146e-13
        56   5.1452405           1530   393            417            719            1              5.9772739e-13
        57   5.2368807           1540   394            417            728            1              5.9973382e-13
        58   5.3329826           1549   396            417            733            3              6.0186853e-13
        59   5.4950216           1555   396            418            735            6              6.0415457e-13
        60   5.6222934           1570   396            421            745            8              6.068119e-13 
        61   5.753731            1582   396            423            753            10             6.0953759e-13
        62   5.9091734           1596   397            425            761            13             6.1244635e-13
        63   6.0562003           1612   397            428            770            17             6.1558877e-13
        64   6.1588692           1624   399            430            772            23             6.1860095e-13
        65   6.3052321           1641   399            432            781            29             6.2166809e-13
        66   6.4599002           1653   399            434            786            34             6.2489061e-13
        67   6.5784458           1666   399            436            789            42             6.2828791e-13
        68   6.6840086           1684   400            440            795            49             6.3159392e-13
        69   6.8098378           1701   400            443            796            62             6.3483612e-13
        70   6.9380555           1722   400            447            807            68             6.3813085e-13
        71   7.023427            1740   401            448            810            81             6.4126471e-13
        72   7.0935661           1754   402            452            811            89             6.4431587e-13
        73   7.1676289           1774   402            456            821            95             6.4728175e-13
        74   7.2329845           1785   402            457            825            101            6.5026746e-13
        75   7.2902644           1796   402            460            826            108            6.5315963e-13
        76   7.3446342           1814   402            463            836            113            6.5594688e-13
        77   7.433696            1830   403            465            843            119            6.5862788e-13
        78   7.5002568           1840   404            466            840            130            6.6143429e-13
        79   7.6028943           1859   405            469            850            135            6.6412878e-13
        80   7.7384742           1879   405            473            862            139            6.6696943e-13
        81   7.8446835           1891   405            475            871            140            6.69983e-13  
        82   8.0014269           1910   406            475            886            143            6.7313009e-13
        83   8.1852594           1919   407            475            889            148            6.767227e-13 
        84   8.3853251           1935   407            478            896            154            6.807366e-13 
        85   8.5652486           1957   407            481            912            157            6.8530717e-13
        86   8.7402688           1976   407            482            926            161            6.9018249e-13
        87   8.9215409           1999   407            482            941            169            6.9530027e-13
        88   9.0882804           2015   407            485            949            174            7.0069794e-13
        89   9.2230772           2039   407            485            972            175            7.0624009e-13
        90   9.3717343           2064   407            486            995            176            7.1169597e-13
        91   9.4938835           2083   408            488            1006           181            7.1705664e-13
        92   9.5941906           2108   408            489            1022           189            7.2230099e-13
        93   9.6873831           2137   408            490            1045           194            7.2733794e-13
        94   9.7751753           2161   409            494            1060           198            7.3217616e-13
        95   9.8556821           2177   409            495            1074           199            7.3683433e-13
        96   9.9474809           2194   409            495            1090           200            7.4127042e-13
        97   10.062179           2220   410            495            1113           202            7.4567672e-13
        98   10.245653           2237   411            495            1124           207            7.501391e-13 
        99   10.422857           2259   411            494            1144           210            7.5520643e-13
       100   10.641494           2283   412            494            1166           211            7.6040671e-13
       101   10.878745           2311   412            495            1192           212            7.6620689e-13
       102   11.164516           2330   412            495            1210           213            7.7271292e-13
       103   11.44649            2360   412            494            1234           220            7.7998914e-13
       104   11.722891           2388   412            493            1260           223            7.8810923e-13
       105   11.983482           2422   413            493            1289           227            7.9692364e-13
       106   12.247282           2462   412            494            1327           229            8.0626777e-13
       107   12.506824           2502   412            494            1366           230            8.1600718e-13
       108   12.7519             2542   413            494            1401           234            8.2615544e-13
       109   12.970935           2585   414            494            1441           236            8.3648982e-13
       110   13.22148            2628   414            494            1483           237            8.468253e-13 
       111   13.428674           2678   414            493            1530           241            8.5727985e-13
       112   13.665546           2712   412            493            1559           248            8.6764051e-13
       113   13.868178           2762   413            492            1602           255            8.7830498e-13
       114   14.12669            2812   413            489            1647           263            8.8872452e-13
       115   14.375449           2852   412            488            1677           275            8.9948913e-13
       116   14.66075            2908   412            487            1728           281            9.1049983e-13
       117   14.962922           2960   412            486            1775           287            9.2194214e-13
       118   15.319304           3009   411            485            1817           296            9.3397691e-13
       119   15.656781           3055   412            484            1853           306            9.4687349e-13
       120   15.978214           3114   412            483            1907           312            9.6049303e-13
       121   16.294727           3170   412            483            1958           317            9.742999e-13 
       122   16.583406           3229   412            482            2011           324            9.8837799e-13
       123   16.860621           3295   412            481            2068           334            1.002325e-12 
       124   17.161945           3350   411            481            2110           348            1.0161261e-12
       125   17.436996           3407   412            480            2157           358            1.0301338e-12
       126   17.71351            3468   410            480            2211           367            1.044048e-12 
       127   18.058853           3537   410            480            2274           373            1.0579479e-12
       128   18.395324           3595   409            480            2327           379            1.0725537e-12
       129   18.745695           3655   409            480            2383           383            1.0873765e-12
       130   19.161239           3723   409            480            2449           385            1.1023425e-12
       131   19.568226           3782   409            480            2503           390            1.118151e-12 
       132   19.965414           3843   409            480            2563           391            1.1349979e-12
       133   20.38608            3911   409            480            2624           398            1.1522555e-12
       134   20.746093           3981   409            480            2690           402            1.1700817e-12
       135   21.098533           4047   409            479            2753           406            1.187869e-12 
       136   21.486019           4133   409            478            2838           408            1.2056404e-12
       137   21.850336           4200   409            477            2905           409            1.2238003e-12
       138   22.176043           4278   409            476            2982           411            1.2417302e-12
       139   22.525006           4350   409            476            3054           411            1.2592771e-12
       140   22.954332           4434   409            475            3138           412            1.2768132e-12
       141   23.378736           4512   409            474            3216           413            1.295303e-12 
       142   23.813841           4604   409            474            3307           414            1.3146159e-12
       143   24.261846           4685   409            474            3385           417            1.3352828e-12
       144   24.687714           4766   409            474            3465           418            1.3574244e-12
       145   25.105763           4881   409            474            3579           419            1.3802376e-12
       146   25.52434            4975   409            473            3673           420            1.4038334e-12
       147   25.947386           5074   408            473            3772           421            1.4277753e-12
       148   26.37205            5164   408            473            3861           422            1.4517626e-12
       149   26.773742           5265   408            472            3959           426            1.4755014e-12
       150   27.186489           5374   408            472            4064           430            1.4987653e-12
       151   27.595947           5489   408            471            4167           443            1.5216135e-12
       152   28.088888           5596   408            471            4262           455            1.54445e-12  
       153   28.540151           5721   408            471            4373           469            1.5672795e-12
       154   28.995472           5813   407            471            4447           488            1.5906427e-12
       155   29.4807             5931   407            471            4547           506            1.6149653e-12
       156   29.946272           6039   407            471            4631           530            1.6402088e-12
       157   30.433139           6174   407            471            4746           550            1.6666741e-12
       158   30.898032           6290   407            470            4838           575            1.6938421e-12
       159   31.364664           6408   407            470            4931           600            1.7217313e-12
       160   31.857989           6524   407            470            5007           640            1.7499057e-12
       161   32.340415           6643   407            470            5099           667            1.7781744e-12
       162   32.835307           6754   407            470            5182           695            1.8059189e-12
       163   33.321308           6876   407            470            5273           726            1.8339327e-12
       164   33.804965           7015   407            470            5385           753            1.861954e-12 
       165   34.291951           7136   407            470            5467           792            1.8898274e-12
       166   34.806819           7280   407            470            5587           816            1.9186025e-12
       167   35.336643           7392   407            470            5651           864            1.9479324e-12
       168   35.886337           7525   407            469            5742           907            1.9790193e-12
       169   36.396586           7662   407            469            5831           955            2.0112216e-12
       170   36.923932           7809   407            469            5940           993            2.0445912e-12
       171   37.456447           7962   407            468            6060           1027           2.0784956e-12
       172   38.012              8115   407            468            6181           1059           2.1131418e-12
       173   38.541076           8261   407            468            6295           1091           2.1485646e-12
       174   39.061076           8407   407            468            6405           1127           2.1842929e-12
       175   39.598794           8570   407            468            6534           1161           2.2200175e-12
       176   40.176886           8733   406            468            6664           1195           2.2562125e-12
       177   40.734772           8908   406            468            6803           1231           2.2932865e-12
       178   41.308567           9063   406            468            6931           1258           2.3322735e-12
       179   41.887886           9242   406            468            7073           1295           2.3727493e-12
       180   42.57208            9435   406            468            7229           1332           2.4149992e-12
       181   43.15891            9623   406            466            7377           1374           2.4590085e-12
       182   43.782466           9815   405            466            7521           1423           2.5047887e-12
       183   44.36541           10013   405            466            7682           1460           2.5518065e-12
       184   44.960699          10198   405            465            7823           1505           2.5997341e-12
       185   45.586291          10413   405            465            7993           1550           2.6476562e-12
       186   46.235843          10647   405            464            8170           1608           2.6967409e-12
       187   46.950362          10855   405            463            8342           1645           2.747586e-12 
       188   47.693724          11083   405            462            8525           1691           2.8003526e-12
       189   48.405059          11319   405            461            8708           1745           2.8566455e-12
       190   49.129611          11557   404            461            8897           1795           2.915309e-12 
       191   49.879862          11814   404            461            9091           1858           2.9774016e-12
       192   50.638265          12065   404            460            9284           1917           3.0419079e-12
       193   51.476296          12337   404            459            9488           1986           3.1095592e-12
       194   52.343615          12610   404            459            9698           2049           3.1790299e-12
       195   53.19611           12896   404            459            9914           2119           3.2511257e-12
       196   54.124139          13192   404            458            10136          2194           3.3263724e-12
       197   55.085566          13502   404            457            10382          2259           3.4060737e-12
       198   56.102623          13831   404            457            10648          2322           3.4926025e-12
       199   57.215308          14186   404            457            10933          2392           3.5860704e-12
       200   58.45871           14563   404            457            11250          2452           3.6876562e-12
       201   59.79463           14937   404            457            11557          2519           3.798299e-12 
       202   61.208501          15337   404            457            11880          2596           3.9189458e-12
       203   62.930236          15793   403            457            12264          2669           4.0473215e-12
       204   64.791288          16268   402            457            12667          2742           4.1823253e-12
       205   66.629657          16754   402            456            13083          2813           4.3177616e-12
       206   68.843097          17205   402            456            13464          2883           4.4541644e-12
       207   71.168925          17691   401            456            13879          2955           4.5923307e-12
       208   73.573429          18180   401            454            14289          3036           4.731262e-12 
       209   75.991603          18704   401            452            14736          3115           4.8689536e-12
       210   78.536163          19194   401            450            15163          3180           5.0177777e-12
       211   81.105548          19702   401            448            15618          3235           5.164583e-12 
       212   83.693762          20253   401            448            16084          3320           5.3122565e-12
       213   86.329441          20731   399            448            16489          3395           5.4329216e-12
       214   89.022363          21300   398            448            16995          3459           5.5867603e-12
       215   91.703715          21820   398            447            17434          3541           5.7236471e-12
       216   94.417766          22426   398            447            17955          3626           5.8829781e-12
       217   97.142164          22955   398            446            18395          3716           6.0410455e-12
       218   99.873705          23589   397            446            18946          3800           6.2144062e-12
       219   102.62567          24273   396            445            19542          3890           6.3914363e-12
       220   105.46671          24922   395            443            20097          3987           6.5640472e-12
       221   108.23839          25597   394            441            20685          4077           6.7350178e-12
       222   110.99712          26172   393            437            21188          4154           6.9021309e-12
       223   113.75768          26895   393            435            21809          4258           7.0967329e-12
       224   116.53231          27641   393            433            22447          4368           7.2991115e-12
       225   119.31421          28350   392            429            23049          4480           7.479872e-12 
       226   122.05202          29096   390            427            23655          4624           7.6853864e-12
       227   124.79577          29865   386            425            24281          4773           7.8851973e-12
       228   127.5063           30626   380            420            24897          4929           8.0923094e-12
       229   130.252            31396   377            416            25523          5080           8.2862191e-12
       230   133.07207          32176   371            411            26142          5252           8.4926406e-12
       231   135.80281          32949   366            403            26763          5417           8.6988948e-12
       232   138.63374          33795   360            398            27440          5597           8.9142368e-12
       233   141.43827          34615   358            390            28053          5814           9.107128e-12 
       234   144.21509          35385   353            378            28631          6023           9.3180136e-12
       235   147.00583          36259   347            366            29285          6261           9.5214799e-12
       236   149.76973          37006   340            355            29781          6530           9.7191424e-12
       237   152.54201          37806   337            349            30324          6796           9.900832e-12 
       238   155.33721          38638   327            339            30902          7070           1.0095367e-11
       239   158.14996          39486   308            323            31507          7348           1.0253457e-11
       240   161.05371          40182   302            308            31921          7651           1.0436005e-11
       241   163.86879          40899   286            293            32351          7969           1.0592569e-11
       242   166.75723          41590   273            273            32779          8265           1.0718109e-11
       243   169.60686          42351   255            249            33237          8610           1.0846625e-11
       244   172.46943          42989   230            235            33631          8893           1.0964883e-11
       245   175.34041          43576   205            217            33945          9209           1.1053904e-11
       246   178.21429          44266   193            183            34372          9518           1.116344e-11 
       247   181.07307          44907   168            159            34758          9822           1.126099e-11 
       248   183.96111          45553   154            138            35190          10071          1.1342664e-11
       249   186.879            46116   132            114            35549          10321          1.1423637e-11
       250   189.90947          46716   106            93             35950          10567          1.1490533e-11
       251   192.8653           47209   81             75             36253          10800          1.1529533e-11
       252   195.80824          47763   66             60             36593          11044          1.1593037e-11
       253   198.75816          48273   55             45             36921          11252          1.1609165e-11
       254   201.73122          48847   43             36             37275          11493          1.1658458e-11
       255   204.71129          49381   36             31             37585          11729          1.1723656e-11
       256   207.71466          49823   23             18             37761          12021          1.1723419e-11
       257   210.72158          50252   17             17             37970          12248          1.1745036e-11
       258   213.77196          50771   14             11             38232          12514          1.1767603e-11
       259   216.84007          51278   13             10             38453          12802          1.1793787e-11
       260   220.056            51699   10             7              38587          13095          1.181852e-11 
       261   223.17052          52162   7              4              38717          13434          1.1818507e-11
       262   226.33467          52631   7              3              38853          13768          1.1826664e-11
       263   229.49931          53016   4              2              38926          14084          1.1830234e-11
       264   232.69449          53455   3              2              39068          14382          1.1825742e-11
       265   235.90518          53886   3              2              39177          14704          1.1824334e-11
       266   239.09046          54244   3              2              39228          15011          1.1823011e-11
       267   242.35369          54603   3              2              39265          15333          1.1799498e-11
       268   245.60094          55054   3              2              39386          15663          1.1798539e-11
       269   248.90032          55521   3              2              39550          15966          1.1804837e-11
       270   252.33227          55877   3              1              39608          16265          1.1791044e-11
       271   255.64392          56206   3              1              39610          16592          1.1775383e-11
       272   259.00046          56585   3              1              39711          16870          1.1787821e-11
       273   262.4175           56946   3              1              39766          17176          1.1765478e-11
       274   265.76433          57287   3              1              39822          17461          1.1751716e-11
       275   269.16988          57681   3              1              39935          17742          1.1735004e-11
       276   272.63313          58137   3              1              40105          18028          1.1753227e-11
       277   276.06974          58478   3              1              40165          18309          1.1757757e-11
       278   279.55214          58772   3              1              40173          18595          1.1726991e-11
       279   283.03136          59163   3              1              40262          18897          1.1719156e-11
       280   286.66681          59547   3              1              40315          19228          1.1711154e-11
       281   290.20577          59869   3              1              40356          19509          1.1706523e-11
       282   293.81198          60240   3              1              40398          19838          1.1701474e-11
       283   297.45669          60531   3              1              40384          20143          1.1694174e-11
       284   301.07009          60959   3              1              40478          20477          1.1720866e-11
       285   304.70192          61288   3              1              40476          20808          1.1694849e-11
       286   308.39414          61645   3              1              40508          21133          1.1692483e-11
       287   312.08009          62048   3              1              40583          21461          1.1683293e-11
       288   315.83455          62347   3              1              40581          21762          1.1658251e-11
       289   319.59979          62651   3              1              40562          22085          1.1689413e-11
       290   323.50926          63018   3              1              40519          22495          1.1699639e-11
       291   327.32431          63337   3              1              40516          22817          1.1678361e-11
       292   331.15013          63685   3              1              40462          23219          1.1685645e-11
       293   335.09394          64069   3              1              40466          23599          1.1688435e-11
       294   338.94628          64389   3              1              40387          23998          1.1694337e-11
       295   342.88905          64639   3              1              40249          24386          1.1650716e-11
       296   346.67841          65014   3              1              40197          24813          1.1675176e-11
       297   350.53833          65368   3              1              40071          25293          1.168425e-11 
       298   354.4623           65707   3              1              39953          25750          1.1690123e-11
       299   358.38418          66069   3              1              39872          26193          1.1715425e-11
       300   362.62339          66381   3              1              39744          26633          1.1694494e-11
       301   366.5226           66789   3              1              39673          27112          1.1713482e-11
       302   370.51772          66991   3              1              39429          27558          1.1697975e-11
       303   374.5206           67336   3              1              39321          28011          1.170797e-11 
       304   378.53438          67749   3              1              39235          28510          1.1726794e-11
       305   382.63345          68023   3              1              39050          28969          1.1719198e-11
       306   386.69672          68398   3              1              38921          29473          1.1742552e-11
       307   390.92996          68677   3              1              38707          29966          1.1719927e-11
       308   395.21724          68983   3              1              38504          30475          1.1725691e-11
       309   399.33007          69336   3              1              38425          30907          1.1756172e-11
       310   403.77759          69607   3              1              38236          31367          1.173288e-11 
       311   407.93985          70005   3              1              38200          31801          1.1755218e-11
       312   412.23371          70285   3              1              37982          32299          1.1746782e-11
       313   416.51821          70531   3              1              37727          32800          1.1751615e-11
       314   420.78727          70927   3              1              37656          33267          1.1778755e-11
       315   425.17281          71132   3              1              37390          33738          1.1764339e-11
       316   429.49834          71487   3              1              37323          34160          1.1773401e-11
       317   433.87476          71822   3              1              37253          34565          1.1785314e-11
       318   438.27717          72101   3              1              37106          34991          1.1804263e-11
       319   442.78647          72368   3              1              36929          35435          1.1801908e-11
       320   447.40219          72694   3              1              36844          35846          1.1803685e-11
Loop time of 447.402 on 16 procs for 320 steps with 72694 atoms

98.2% CPU use with 16 MPI tasks x 1 OpenMP threads

MPI task timing breakdown:
Section |  min time  |  avg time  |  max time  |%varavg| %total
---------------------------------------------------------------
Pair    | 64.023     | 98.001     | 164.68     | 301.1 | 21.90
Neigh   | 10.809     | 24.206     | 66.235     | 337.8 |  5.41
Comm    | 51.443     | 66.118     | 85.325     | 130.5 | 14.78
Output  | 1.9876     | 1.9876     | 1.9877     |   0.0 |  0.44
Modify  | 121.6      | 235.61     | 293.49     | 329.8 | 52.66
Other   |            | 21.48      |            |       |  4.80

Nlocal:        4543.38 ave        9650 max        3117 min
Histogram: 9 3 0 2 0 0 0 0 0 2
Nghost:        3545.75 ave        6144 max        2452 min
Histogram: 7 2 1 2 0 0 2 0 0 2
Neighs:        32761.9 ave       45730 max       25679 min
Histogram: 2 4 2 3 1 2 0 0 0 2

Total # of neighbors = 524190
Ave neighs/atom = 7.2109115
Neighbor list builds = 3960
Dangerous builds = 337

Total wall time: 0:07:45
