LAMMPS (23 Jun 2022 - Update 4)
  using 1 OpenMP thread(s) per MPI task
package omp 0
using multi-threaded neighbor list subroutines
#-----------------------------------------------------------------------------#
#                NUFEB Simulation: Heterotrophic Biofilm Growth               #
#-----------------------------------------------------------------------------#


#-----------------------------System Settings---------------------------------#

units si                                    # using si units (m, s, kg)
atom_style      coccus                      # using nufeb coccus atom style
atom_modify     map array sort 10 0         # map array - find atoms using indices
		                            # sort every 10

boundary        pp pp ff                    # periodic boundaries in x and y
                                            # fixed boundary in z

newton          off                         # forces between local and ghost
                                            # atoms are computed in each
					     # processor without communication

processors      * * 1                       # processor grid

comm_modify     vel yes                     # communicate velocities for ghost atoms

read_data       atom_ch.in	             # read atom.in file which defines domain size
Reading data file ...
  orthogonal box = (0 0 0) to (6e-05 6e-05 6e-05)
  4 by 4 by 1 MPI processor grid
  reading atoms ...
  150 atoms
  read_data CPU = 0.014 seconds
                                            # and initial atoms


#--------------------Microbes and Functional Groups-------------------------#

group           CROSS1   type 1               # assign type 1,2 atoms to CROSS group
50 atoms in group CROSS1
group           CROSS2   type 2
50 atoms in group CROSS2
group		CHEATER  type 3
50 atoms in group CHEATER
group           dead     type 4
0 atoms in group dead
group		EPS	 type 5
0 atoms in group EPS

neighbor        5e-7 bin                   # setting neighbour skin distance and style

neigh_modify    check yes                  # rebuild neighbour list if any atom
                                           # had moved more than half the skin distance


#--------------------------Mesh Grid and Substrates--------------------------#

# defining grid sytle, substrate names, and grid size
grid_style      nufeb/chemostat 3 sub metab1 metab2 5e-6

# set diffusion boundary conditions and initial concentrations (liquid:kg/m3)
grid_modify     set sub      pp pp nd  1.8e-4
No /omp style for force computation currently active
grid_modify     set metab1   pp pp nd  1e-4
No /omp style for force computation currently active
grid_modify     set metab2   pp pp nd  1e-4
No /omp style for force computation currently active


#--------------------------Biological Processes-------------------------------#

# heterotrophs growth
fix growth_cross1 CROSS1 nufeb/growth/cross1 sub 3.5e-5 metab2 4e-3 metab1 growth 0.009 yield 0.6 decay 2.6e-6 metab1_exp 20 epsyield 0.12 epsdens 30

fix growth_cross2 CROSS2 nufeb/growth/cross2 sub 3.5e-5 metab1 4e-3 metab2 growth 0.009 yield 0.6 decay 2.6e-6 metab2_exp 20 epsyield 0.12 epsdens 30

fix growth_cheater CHEATER nufeb/growth/cheater sub 3.5e-5 metab1 1e-3 metab2 1e-3 growth 0.009 yield 0.6 decay 2.6e-6

# heterotrophs division, division diameter: 1.36e-6
fix div1 CROSS1 nufeb/division/coccus 1.36e-6 328
fix div2 CROSS2 nufeb/division/coccus 1.36e-6 1006
fix div3 CHEATER nufeb/division/coccus 1.36e-6 2134

fix death1 CROSS1 nufeb/death/diameter dead 5.43e-7
fix death2 CROSS2 nufeb/death/diameter dead 5.43e-7
fix death3 CHEATER nufeb/death/diameter dead 5.43e-7

# EPS secretion from heterotrophs
fix eps1 CROSS1 nufeb/eps_secretion 5 EPS 1.1 30 3712
fix eps2 CROSS2 nufeb/eps_secretion 5 EPS 1.1 30 5740

#---------------------------Physical Processes--------------------------------#

pair_style  gran/hooke/history 1e-4 NULL 1e-5 NULL 0.0 0    # pairwise interaction
pair_coeff  * *                                             # between atoms

# pairwise interaction between z-wall and atoms
fix wall all wall/gran hooke/history 1e-3 NULL 1e-4 NULL 0 0 zplane 0.0 1e-04

fix vis all viscous 1e-5                                    # viscous damping force

fix grav all gravity 9.81 vector 0.0 0.0 -1.0

fix nve all nve/limit 1e-7                                  # NVE integration with
                                                            # maximum distance limit


#---------------------------Post-Physical Processes---------------------------#

fix coeff_sub all nufeb/diffusion_coeff sub ratio 0.8       # defining diffusion coeff in the biofilm
fix coeff_metab1 all nufeb/diffusion_coeff metab1 ratio 0.8    # region is 80% of the value in liquid
fix coeff_metab2 all nufeb/diffusion_coeff metab2 ratio 0.8

#---------------------------Chemical Processes---------------------------------#

fix diff_sub all nufeb/diffusion_reaction sub 1e-9        # diffusion reaction for updating
fix diff_metab1 all nufeb/diffusion_reaction metab1 4e-9     # distribusion of substrate concentration
fix diff_metab2 all nufeb/diffusion_reaction metab2 4e-9

#--------------------------Computations and Outputs----------------------------#

variable mass equal "mass(all)"                             # total mass
variable ncross1 equal "count(CROSS1)"                      # total # of CROSS1
variable ncross2 equal "count(CROSS2)"                      # total # of CROSS2
variable ncheater equal "count(CHEATER)"
variable ndead equal "count(dead)"
variable neps equal "count(EPS)"

shell mkdir vtk_EPS_ch                                            # dump vtk files to /vtk folder
dump du1 all vtk 10 vtk_EPS_ch/dump*.vtu id type diameter         # require build NUFEB with vtk option
dump du2 all grid/vtk 10 vtk_EPS_ch/dump_%_*.vti con rea den gro

#dump du3 all movie 10 movie.avi type diameter view 80 60    # dump video
#dump_modify du3 acolor 1 blue acolor 2 lightgrey framerate 10


                                                            # dump hdf5 files to /hdf5 folder
#shell mkdir hdf5                                           # require build NUFEB with hdf5 option
#dump du3 all nufeb/hdf5 10 dump.h5 id type x y z vx vy vz fx fy fz radius conc reac

thermo_style custom step cpu atoms v_ncross1 v_ncross2 v_ncheater v_ndead v_neps v_mass     # screen and log outputs
thermo 1
thermo_modify   lost ignore

#-----------------------------------Run----------------------------------------#

# issue run command, define timesteps for physical (pairdt) and chemical (diffdt) processes
run_style nufeb diffdt 1e-4 difftol 1e-6 pairdt 1e-2 pairtol 1 pairmax 1000 diffmax 5000

timestep 12000                                               # define biological timesteps (1000s)

run 320                                                    # growing biofilm for 900x1000s
Generated 0 of 6 mixed pair_coeff terms from geometric mixing rule
Last active /omp style is pair_style gran/hooke/history/omp
Neighbor list info ...
  update every 1 steps, delay 10 steps, check yes
  max neighbors/atom: 2000, page size: 100000
  master list distance cutoff = 2.49e-06
  ghost atom cutoff = 2.49e-06
  binsize = 1.245e-06, bins = 49 49 49
  1 neighbor lists, perpetual/occasional/extra = 1 0 0
  (1) pair gran/hooke/history/omp, perpetual
      attributes: half, newton off, size, history, omp
      pair build: half/size/bin/newtoff/omp
      stencil: full/bin/3d
      bin: standard
Per MPI rank memory allocation (min/avg/max) = 11.02 | 11.02 | 11.02 Mbytes
   Step          CPU          Atoms      v_ncross1      v_ncross2      v_ncheater      v_ndead         v_neps         v_mass    
         0   0                    150   50             50             50             0              0              1.3295396e-13
         1   0.38428972           432   90             85             86             0              171            1.7279992e-13
         2   0.76832074           806   123            127            137            0              419            1.9532535e-13
         3   1.0791651           1124   130            142            183            0              669            2.1471423e-13
         4   1.3946386           1430   136            150            203            0              941            2.3243412e-13
         5   1.6141655           1742   139            158            221            0              1224           2.498531e-13 
         6   1.7830139           2055   142            167            237            0              1509           2.6739718e-13
         7   1.976229            2393   148            177            258            0              1810           2.8488268e-13
         8   2.1246085           2743   160            186            280            0              2117           3.0199858e-13
         9   2.2755075           3125   167            197            302            0              2459           3.1895875e-13
        10   2.4221654           3482   173            201            320            0              2788           3.3506043e-13
        11   2.5573808           3883   179            214            345            0              3145           3.5083148e-13
        12   2.6705367           4255   183            218            362            0              3492           3.6612023e-13
        13   2.7715879           4638   189            222            376            0              3851           3.8089722e-13
        14   2.8756967           5035   193            227            397            0              4218           3.9534643e-13
        15   3.0141648           5427   198            232            413            0              4584           4.0937504e-13
        16   3.1302262           5811   204            238            426            0              4943           4.2289898e-13
        17   3.2312068           6202   206            243            442            0              5311           4.3614647e-13
        18   3.3573176           6587   211            246            455            0              5675           4.4904706e-13
        19   3.4683964           6974   218            248            468            0              6040           4.6173263e-13
        20   3.9798491           7378   225            253            493            0              6407           4.7355062e-13
        21   4.1134953           7784   235            258            514            0              6777           4.8498124e-13
        22   4.2179835           8197   239            263            532            0              7163           4.9612556e-13
        23   4.3339992           8580   241            265            548            0              7526           5.067733e-13 
        24   4.4186517           8971   249            270            559            0              7893           5.1702651e-13
        25   4.4994214           9377   257            270            573            0              8277           5.2707385e-13
        26   4.5762904           9772   260            272            585            0              8655           5.3672144e-13
        27   4.6607291          10176   265            276            598            0              9037           5.4607319e-13
        28   4.7725762          10577   266            281            605            0              9425           5.5521915e-13
        29   4.8879661          10981   268            283            619            0              9811           5.6389397e-13
        30   5.0389875          11375   269            289            629            0              10188          5.7219293e-13
        31   5.1240754          11782   272            294            639            0              10577          5.8024366e-13
        32   5.2053203          12170   274            301            649            0              10946          5.8790151e-13
        33   5.3280633          12593   276            304            661            0              11352          5.9554498e-13
        34   5.429494           12985   277            307            673            0              11728          6.0285081e-13
        35   5.6179396          13387   281            308            683            0              12115          6.1006922e-13
        36   5.8074729          13795   287            311            691            0              12506          6.1695769e-13
        37   6.0307447          14190   291            312            701            0              12886          6.2364708e-13
        38   6.328351           14595   294            313            712            0              13276          6.3028789e-13
        39   6.6237946          15004   294            316            722            0              13672          6.364249e-13 
        40   7.1156504          15409   296            318            734            0              14061          6.4238693e-13
        41   7.4803397          15813   298            321            746            0              14448          6.4827168e-13
        42   7.9031323          16228   300            323            755            0              14850          6.5403617e-13
        43   8.7283991          16626   301            325            761            0              15239          6.5909029e-13
        44   9.5616304          17020   302            328            766            0              15624          6.6429131e-13
        45   10.444234          17457   311            330            773            0              16043          6.6983587e-13
        46   11.336381          17844   314            330            781            0              16419          6.7480141e-13
        47   12.268933          18254   316            331            786            0              16821          6.7992486e-13
        48   13.199673          18672   318            334            796            0              17224          6.8472031e-13
        49   14.152967          19064   318            335            802            0              17609          6.8901695e-13
        50   15.179815          19495   321            337            808            0              18029          6.9360726e-13
        51   16.191096          19878   324            337            810            0              18407          6.9795113e-13
        52   17.204245          20304   324            338            816            0              18826          7.0237254e-13
        53   18.266709          20694   326            340            824            0              19204          7.0658769e-13
        54   19.346973          21103   327            342            826            0              19608          7.1083165e-13
        55   20.431084          21510   328            346            832            0              20004          7.1480962e-13
        56   21.553783          21927   329            346            839            0              20413          7.1890851e-13
        57   22.664767          22332   332            347            846            1              20806          7.2258201e-13
        58   23.813137          22754   334            350            851            1              21218          7.2624799e-13
        59   24.972876          23166   334            352            856            2              21622          7.2963784e-13
        60   26.226859          23583   337            352            861            2              22031          7.3294018e-13
        61   27.461094          23990   341            355            866            2              22426          7.3605988e-13
        62   28.736576          24407   341            356            871            3              22836          7.3942078e-13
        63   30.015744          24842   342            359            877            3              23261          7.4254455e-13
        64   31.343754          25245   348            360            879            4              23654          7.4514925e-13
        65   32.661961          25678   349            362            884            4              24079          7.476529e-13 
        66   33.998164          26086   350            362            889            5              24480          7.4999541e-13
        67   35.375735          26519   351            365            889            8              24906          7.5243049e-13
        68   36.76697           26936   353            368            888            10             25317          7.5463969e-13
        69   38.212694          27362   353            370            891            12             25736          7.5697502e-13
        70   39.772465          27793   354            370            897            12             26160          7.5948915e-13
        71   41.284882          28214   355            371            896            15             26577          7.6166028e-13
        72   42.81103           28646   361            371            895            18             27001          7.6399564e-13
        73   44.394911          29081   362            373            895            22             27429          7.6656306e-13
        74   46.005583          29511   364            374            896            28             27849          7.6941868e-13
        75   47.643539          29944   366            374            895            34             28275          7.7229196e-13
        76   49.326542          30373   367            375            897            39             28695          7.7549716e-13
        77   51.028318          30796   371            376            898            45             29106          7.7899024e-13
        78   52.767492          31243   373            378            905            49             29538          7.8282451e-13
        79   54.530113          31684   374            379            907            56             29968          7.8679985e-13
        80   56.445918          32114   376            379            903            68             30388          7.9077236e-13
        81   58.357251          32569   377            379            906            78             30829          7.9547467e-13
        82   60.342009          32987   379            380            912            86             31230          8.0021318e-13
        83   62.281372          33435   379            381            924            93             31658          8.060097e-13 
        84   64.256114          33883   379            381            937            100            32086          8.1185315e-13
        85   66.399068          34316   379            385            943            109            32500          8.1771883e-13
        86   68.573451          34735   382            386            951            114            32902          8.2451495e-13
        87   70.701702          35185   383            386            970            116            33330          8.3235624e-13
        88   72.943663          35632   383            388            987            126            33748          8.4055387e-13
        89   75.198964          36047   383            388            1004           135            34137          8.4941335e-13
        90   77.578605          36497   383            389            1022           142            34561          8.589035e-13 
        91   79.936448          36930   385            390            1047           146            34962          8.6865142e-13
        92   82.34637           37354   386            391            1065           155            35357          8.791228e-13 
        93   84.902078          37819   387            392            1095           161            35784          8.9046945e-13
        94   87.401349          38229   388            392            1122           165            36162          9.0293053e-13
        95   89.941898          38680   389            392            1162           170            36567          9.1598142e-13
        96   92.496699          39097   389            393            1193           179            36943          9.2947404e-13
        97   95.112522          39530   390            393            1228           183            37336          9.4360513e-13
        98   97.763394          39942   390            393            1262           188            37709          9.5810042e-13
        99   100.45735          40377   391            393            1303           190            38100          9.7327656e-13
       100   103.29185          40804   391            394            1357           192            38470          9.8875978e-13
       101   106.09384          41228   391            394            1393           200            38850          1.0049262e-12
       102   108.95247          41647   391            395            1447           208            39206          1.0214364e-12
       103   111.85473          42081   391            395            1492           216            39587          1.0385186e-12
       104   114.7851           42491   391            395            1538           219            39948          1.0561896e-12
       105   117.72719          42903   392            395            1586           225            40305          1.0743339e-12
       106   120.70103          43305   392            395            1639           230            40649          1.0923668e-12
       107   123.78218          43700   394            396            1684           233            40993          1.1103956e-12
       108   126.88632          44098   395            396            1726           241            41340          1.128429e-12 
       109   130.07979          44509   396            396            1789           246            41682          1.1467949e-12
       110   133.38038          44880   397            396            1838           254            41995          1.1647295e-12
       111   136.55424          45282   400            396            1894           260            42332          1.1827295e-12
       112   139.82156          45662   404            396            1959           263            42640          1.2004914e-12
       113   143.11132          46058   405            397            2012           265            42979          1.2178906e-12
       114   146.45774          46437   407            397            2056           273            43304          1.2344553e-12
       115   149.86054          46786   410            397            2102           277            43600          1.2507112e-12
       116   153.25663          47186   414            397            2157           283            43935          1.2669501e-12
       117   156.7471           47555   417            397            2199           290            44252          1.2822948e-12
       118   160.3165           47941   417            397            2253           298            44576          1.297785e-12 
       119   163.93826          48304   419            398            2294           304            44889          1.3129408e-12
       120   167.82307          48685   423            398            2338           318            45208          1.3281171e-12
       121   171.52855          49077   428            398            2389           325            45537          1.3432014e-12
       122   175.30256          49449   431            399            2447           335            45837          1.3578914e-12
       123   179.13314          49858   433            401            2494           345            46185          1.3731081e-12
       124   183.0523           50243   435            401            2546           353            46508          1.3878649e-12
       125   187.04195          50642   439            402            2575           375            46851          1.4028786e-12
       126   191.10942          51038   440            403            2621           389            47185          1.4180178e-12
       127   195.20442          51424   444            403            2665           409            47503          1.4332146e-12
       128   199.37244          51812   446            403            2692           436            47835          1.4484454e-12
       129   203.56503          52210   446            403            2730           461            48170          1.4637458e-12
       130   207.9681           52578   447            403            2769           480            48479          1.4787207e-12
       131   212.30524          52981   449            404            2809           504            48815          1.4936327e-12
       132   216.67245          53390   451            404            2855           528            49152          1.508868e-12 
       133   221.19752          53774   451            405            2900           549            49469          1.5235668e-12
       134   225.69868          54172   452            405            2938           573            49804          1.538636e-12 
       135   230.26708          54563   457            406            2981           590            50129          1.55339e-12  
       136   234.90461          54963   458            406            3030           615            50454          1.5677525e-12
       137   239.66377          55353   460            406            3080           632            50775          1.5814846e-12
       138   244.51169          55772   462            406            3118           652            51134          1.5957286e-12
       139   249.38641          56143   463            406            3165           667            51442          1.6096049e-12
       140   254.48904          56533   463            406            3218           685            51761          1.6234641e-12
       141   259.51697          56935   464            406            3256           711            52098          1.6373265e-12
       142   264.68706          57350   467            407            3320           727            52429          1.6511706e-12
       143   269.84336          57752   469            408            3371           751            52753          1.6650668e-12
       144   275.06815          58178   471            409            3423           774            53101          1.6784264e-12
       145   280.34437          58585   472            410            3465           797            53441          1.6919211e-12
       146   285.68545          58985   474            411            3506           815            53779          1.7047884e-12
       147   291.13717          59412   474            411            3567           843            54117          1.7177052e-12
       148   296.62211          59833   474            411            3600           868            54480          1.7307604e-12
       149   302.16123          60270   474            411            3677           884            54824          1.7437049e-12
       150   307.91712          60700   474            413            3717           908            55188          1.7572665e-12
       151   313.64616          61145   474            414            3796           925            55536          1.7709266e-12
       152   319.43372          61593   474            414            3854           940            55911          1.7850833e-12
       153   325.31777          62053   474            414            3920           958            56287          1.7996106e-12
       154   331.33278          62489   474            414            3984           971            56646          1.8142099e-12
       155   337.44372          62967   474            415            4062           983            57033          1.8297684e-12
       156   343.64828          63434   474            415            4151           998            57396          1.8456774e-12
       157   349.94049          63888   474            415            4223           1010           57766          1.8624209e-12
       158   356.31411          64372   475            415            4313           1017           58152          1.8798017e-12
       159   362.79364          64844   476            415            4395           1027           58531          1.8972183e-12
       160   369.66045          65317   476            415            4481           1035           58910          1.9151362e-12
       161   376.30942          65767   476            415            4568           1050           59258          1.9333962e-12
       162   383.02005          66248   476            415            4653           1071           59633          1.9521403e-12
       163   389.8088           66727   476            415            4730           1095           60011          1.9709773e-12
       164   396.66118          67195   476            415            4796           1121           60387          1.9899274e-12
       165   403.61101          67658   476            415            4862           1155           60750          2.0087933e-12
       166   410.69862          68143   476            416            4949           1190           61112          2.0279335e-12
       167   417.87889          68628   477            416            5015           1228           61492          2.0475207e-12
       168   425.15443          69086   477            414            5074           1273           61848          2.0676159e-12
       169   432.54892          69556   477            414            5144           1311           62210          2.0879707e-12
       170   440.19837          70034   477            414            5238           1337           62568          2.1086135e-12
       171   447.80744          70536   477            412            5331           1376           62940          2.1296779e-12
       172   455.50033          70985   477            412            5387           1417           63292          2.1514712e-12
       173   463.30216          71473   477            412            5452           1474           63658          2.1739667e-12
       174   471.19483          71934   476            412            5514           1520           64012          2.1974571e-12
       175   479.17264          72367   476            412            5561           1571           64347          2.2210987e-12
       176   487.24804          72853   476            412            5657           1606           64702          2.2449787e-12
       177   495.41089          73317   476            412            5743           1640           65046          2.2691761e-12
       178   503.67271          73764   476            411            5835           1672           65370          2.2937782e-12
       179   512.06664          74220   476            411            5926           1704           65703          2.3186507e-12
       180   520.7789           74687   476            411            6015           1739           66046          2.3439149e-12
       181   529.3179           75165   476            411            6128           1770           66380          2.369162e-12 
       182   537.94069          75607   476            411            6219           1802           66699          2.3943288e-12
       183   546.64324          76083   475            411            6310           1845           67042          2.419739e-12 
       184   555.49177          76539   473            411            6404           1883           67368          2.445007e-12 
       185   564.36546          77007   473            411            6496           1928           67699          2.470478e-12 
       186   573.39314          77458   473            410            6567           1979           68029          2.4956538e-12
       187   582.51227          77931   473            410            6665           2025           68358          2.5212662e-12
       188   591.70688          78378   473            410            6761           2072           68662          2.5472638e-12
       189   600.99386          78835   472            410            6836           2117           69000          2.573391e-12 
       190   610.59429          79288   472            410            6923           2161           69322          2.5994289e-12
       191   620.10541          79740   472            409            7021           2215           69623          2.6273415e-12
       192   629.73446          80205   471            407            7113           2258           69956          2.6550961e-12
       193   639.41005          80644   469            407            7199           2320           70249          2.6829357e-12
       194   649.22593          81085   469            406            7283           2375           70552          2.7115419e-12
       195   659.13862          81552   468            405            7361           2443           70875          2.740872e-12 
       196   669.13805          81978   468            404            7437           2521           71148          2.770507e-12 
       197   679.2256           82451   468            403            7527           2584           71469          2.8016455e-12
       198   689.39164          82914   468            403            7639           2649           71755          2.8330417e-12
       199   699.62595          83354   467            402            7721           2709           72055          2.8654626e-12
       200   710.14382          83811   466            401            7824           2773           72347          2.8978339e-12
       201   720.55275          84280   465            401            7937           2833           72644          2.9306899e-12
       202   731.0907           84748   461            401            8061           2900           72925          2.9634414e-12
       203   741.67835          85191   460            400            8165           2957           73209          2.9968383e-12
       204   752.33638          85674   458            400            8264           3045           73507          3.0297767e-12
       205   763.02631          86111   458            398            8357           3122           73776          3.0630061e-12
       206   773.81158          86569   453            397            8463           3196           74060          3.0956302e-12
       207   784.64985          87041   452            397            8554           3285           74353          3.1285996e-12
       208   795.57605          87479   452            397            8639           3376           74615          3.1620441e-12
       209   806.58366          87951   452            394            8745           3468           74892          3.1962389e-12
       210   817.87362          88402   450            392            8830           3551           75179          3.2306946e-12
       211   829.03417          88842   449            392            8941           3624           75436          3.2655657e-12
       212   840.2878           89333   447            388            9072           3711           75715          3.3017412e-12
       213   851.65011          89782   445            388            9176           3800           75973          3.3386451e-12
       214   863.09436          90256   445            386            9289           3882           76254          3.3763053e-12
       215   874.666            90729   445            385            9415           3959           76525          3.4150479e-12
       216   886.29957          91176   445            384            9535           4034           76778          3.4538549e-12
       217   898.06369          91666   443            383            9676           4121           77043          3.4930259e-12
       218   909.91422          92104   442            380            9782           4204           77296          3.5325289e-12
       219   921.8724           92604   440            378            9917           4291           77578          3.571818e-12 
       220   934.13165          93036   440            376            10028          4370           77822          3.6117822e-12
       221   946.2898           93505   436            376            10183          4439           78071          3.6528264e-12
       222   958.54368          93993   435            374            10337          4509           78338          3.6937502e-12
       223   970.88904          94454   433            371            10491          4564           78595          3.7360009e-12
       224   983.30038          94931   431            370            10651          4640           78839          3.779877e-12 
       225   995.87171          95384   427            369            10829          4701           79058          3.8247318e-12
       226   1008.5708          95894   422            368            10990          4792           79322          3.8709602e-12
       227   1021.3494          96386   418            367            11147          4879           79575          3.9188089e-12
       228   1034.2484          96870   416            364            11317          4971           79802          3.9684352e-12
       229   1047.2358          97343   414            361            11472          5057           80039          4.019336e-12 
       230   1060.5162          97839   414            358            11637          5135           80295          4.0705851e-12
       231   1073.6558          98325   411            357            11823          5215           80519          4.1234769e-12
       232   1086.9164          98839   410            350            12031          5299           80749          4.1772503e-12
       233   1100.2626          99341   405            349            12195          5396           80996          4.2319383e-12
       234   1113.7234          99848   404            348            12393          5468           81235          4.2890908e-12
       235   1127.3272         100347   403            347            12614          5544           81439          4.3493272e-12
       236   1141.0262         100869   400            346            12849          5611           81663          4.412624e-12 
       237   1154.8736         101420   398            341            13073          5706           81902          4.4788509e-12
       238   1168.8269         101980   395            339            13340          5782           82124          4.5485219e-12
       239   1182.8752         102474   395            336            13563          5862           82318          4.6219613e-12
       240   1197.3172         103035   393            332            13822          5949           82539          4.6979332e-12
       241   1211.5685         103623   392            329            14087          6040           82775          4.7763257e-12
       242   1226.0072         104171   387            324            14347          6149           82964          4.8583652e-12
       243   1240.5456         104749   384            323            14639          6240           83163          4.9460187e-12
       244   1255.2392         105382   381            322            14948          6355           83376          5.0388866e-12
       245   1270.0445         105987   378            320            15250          6465           83574          5.1407178e-12
       246   1285.0065         106660   376            315            15609          6578           83782          5.2528679e-12
       247   1300.171          107334   374            312            15953          6719           83976          5.3749781e-12
       248   1315.4755         108024   372            310            16308          6863           84171          5.5061823e-12
       249   1330.9629         108742   370            307            16727          6991           84347          5.643775e-12 
       250   1346.9012         109444   366            303            17065          7155           84555          5.7801812e-12
       251   1362.8447         110172   364            300            17478          7296           84734          5.9264791e-12
       252   1378.9142         110903   361            295            17883          7458           84906          6.0713705e-12
       253   1395.1767         111658   358            289            18295          7612           85104          6.2189002e-12
       254   1411.6379         112387   354            285            18715          7764           85269          6.3638088e-12
       255   1428.2215         113173   354            282            19183          7913           85441          6.522664e-12 
       256   1444.9801         113965   352            279            19640          8058           85636          6.6798585e-12
       257   1461.886          114718   349            271            20070          8242           85786          6.8324594e-12
       258   1478.9135         115508   347            265            20531          8404           85961          6.9982806e-12
       259   1496.1029         116372   346            260            21075          8569           86122          7.1734252e-12
       260   1513.7079         117180   343            258            21542          8734           86303          7.3448979e-12
       261   1531.1709         118037   337            251            22080          8916           86453          7.5246328e-12
       262   1548.7386         118860   333            248            22596          9088           86595          7.7023259e-12
       263   1566.3775         119764   330            246            23179          9263           86746          7.897679e-12 
       264   1584.1481         120724   329            243            23837          9407           86908          8.0953069e-12
       265   1602.0309         121579   325            238            24397          9581           87038          8.2915465e-12
       266   1619.964          122482   323            235            25025          9743           87156          8.4928286e-12
       267   1637.9572         123399   318            230            25646          9916           87289          8.6824253e-12
       268   1656.0283         124387   313            228            26308          10095          87443          8.8798813e-12
       269   1674.1516         125260   309            224            26899          10269          87559          9.0658315e-12
       270   1692.6346         126153   303            216            27507          10478          87649          9.2462723e-12
       271   1710.8854         127126   299            210            28152          10691          87774          9.4326658e-12
       272   1729.1036         128020   293            207            28741          10888          87891          9.6288973e-12
       273   1747.4146         128992   288            202            29407          11098          87997          9.822151e-12 
       274   1765.7557         129878   279            202            30038          11282          88077          1.0004781e-11
       275   1784.2495         130795   276            192            30631          11523          88173          1.0201795e-11
       276   1802.8727         131778   268            188            31290          11785          88247          1.0390161e-11
       277   1821.5458         132647   259            180            31846          12022          88340          1.0569998e-11
       278   1840.3013         133563   255            176            32447          12277          88408          1.0745391e-11
       279   1859.1694         134457   245            168            33014          12560          88470          1.0910662e-11
       280   1878.5544         135373   239            160            33599          12851          88524          1.1089987e-11
       281   1897.629          136208   232            156            34107          13133          88580          1.1250299e-11
       282   1916.8506         137048   219            148            34635          13420          88626          1.1392595e-11
       283   1936.1247         137870   202            139            35122          13728          88679          1.1545058e-11
       284   1955.4634         138763   193            130            35679          14048          88713          1.1710567e-11
       285   1974.9086         139636   184            125            36200          14374          88753          1.1848427e-11
       286   1994.4795         140374   164            121            36562          14739          88788          1.1973547e-11
       287   2014.1601         141142   154            114            36977          15088          88809          1.209558e-11 
       288   2033.9244         141874   147            108            37324          15459          88836          1.2199257e-11
       289   2053.7418         142647   139            107            37690          15852          88859          1.2301025e-11
       290   2073.9815         143411   136            102            38070          16221          88882          1.2396309e-11
       291   2093.9829         144019   122            98             38292          16606          88901          1.2464942e-11
       292   2114.076          144616   117            91             38480          17007          88921          1.2527013e-11
       293   2134.2678         145291   110            87             38776          17379          88939          1.2593131e-11
       294   2154.4853         145913   104            85             39004          17763          88957          1.2657187e-11
       295   2174.784          146551   99             75             39243          18159          88975          1.2700015e-11
       296   2195.1116         147144   88             66             39463          18538          88989          1.2736973e-11
       297   2215.572          147699   80             60             39680          18866          89013          1.2761773e-11
       298   2236.0543         148279   75             55             39890          19231          89028          1.2817927e-11
       299   2256.6375         148769   69             52             40070          19542          89036          1.2807755e-11
       300   2277.6395         149279   63             51             40254          19860          89051          1.2808399e-11
       301   2298.5145         149761   58             49             40374          20211          89069          1.2803781e-11
       302   2319.3582         150234   52             41             40510          20546          89085          1.280528e-11 
       303   2340.2775         150708   46             37             40649          20878          89098          1.2808226e-11
       304   2361.2875         151195   40             35             40783          21226          89111          1.2799759e-11
       305   2382.341          151582   33             33             40837          21556          89123          1.277872e-11 
       306   2403.4537         152100   30             31             40991          21907          89141          1.277524e-11 
       307   2424.6631         152440   28             29             40989          22242          89152          1.2761635e-11
       308   2445.8871         152874   23             24             41058          22609          89160          1.2751436e-11
       309   2467.2571         153304   21             24             41127          22960          89172          1.2724325e-11
       310   2488.9988         153734   20             23             41152          23354          89185          1.2703611e-11
       311   2510.5964         154238   20             21             41253          23746          89198          1.2723213e-11
       312   2532.2673         154619   19             21             41252          24118          89209          1.2712855e-11
       313   2554.0213         154942   18             20             41158          24524          89222          1.2682692e-11
       314   2575.8565         155367   18             18             41163          24934          89234          1.2670402e-11
       315   2597.764          155792   14             16             41153          25363          89246          1.2655719e-11
       316   2619.739          156180   14             16             41165          25730          89255          1.2636679e-11
       317   2641.7741         156568   14             15             41177          26095          89267          1.2644745e-11
       318   2663.8712         156997   13             15             41222          26467          89280          1.2646343e-11
       319   2686.0705         157330   12             14             41188          26825          89291          1.2609593e-11
       320   2708.6333         157754   12             14             41240          27186          89302          1.2616574e-11
Loop time of 2708.63 on 16 procs for 320 steps with 157754 atoms

97.9% CPU use with 16 MPI tasks x 1 OpenMP threads

MPI task timing breakdown:
Section |  min time  |  avg time  |  max time  |%varavg| %total
---------------------------------------------------------------
Pair    | 689.25     | 787.44     | 981.77     | 297.2 | 29.07
Neigh   | 548.83     | 631.67     | 830.5      | 309.9 | 23.32
Comm    | 313.33     | 377.2      | 426.34     | 186.6 | 13.93
Output  | 6.3355     | 6.3357     | 6.337      |   0.0 |  0.23
Modify  | 463.59     | 892.75     | 1104.1     | 570.9 | 32.96
Other   |            | 13.24      |            |       |  0.49

Nlocal:        9859.62 ave       14245 max        7878 min
Histogram: 6 2 0 2 3 0 1 1 0 1
Nghost:        7681.94 ave       10235 max        6391 min
Histogram: 4 4 1 0 1 4 1 0 0 1
Neighs:        92518.3 ave      106966 max       84945 min
Histogram: 4 2 3 0 3 2 0 1 0 1

Total # of neighbors = 1480293
Ave neighs/atom = 9.3835529
Neighbor list builds = 28135
Dangerous builds = 27815

Total wall time: 0:45:35
