LAMMPS (23 Jun 2022 - Update 4)
  using 1 OpenMP thread(s) per MPI task
package omp 0
using multi-threaded neighbor list subroutines
#-----------------------------------------------------------------------------#
#                NUFEB Simulation: Heterotrophic Biofilm Growth               #
#-----------------------------------------------------------------------------#


#-----------------------------System Settings---------------------------------#

units si                                    # using si units (m, s, kg)
atom_style      coccus                      # using nufeb coccus atom style
atom_modify     map array sort 10 0         # map array - find atoms using indices
		                            # sort every 10

boundary        pp pp ff                    # periodic boundaries in x and y
                                            # fixed boundary in z

newton          off                         # forces between local and ghost
                                            # atoms are computed in each
					     # processor without communication

processors      * * 1                       # processor grid

comm_modify     vel yes                     # communicate velocities for ghost atoms

read_data       atom_ch.in	             # read atom.in file which defines domain size
Reading data file ...
  orthogonal box = (0 0 0) to (6e-05 6e-05 6e-05)
  4 by 4 by 1 MPI processor grid
  reading atoms ...
  150 atoms
  read_data CPU = 0.012 seconds
                                            # and initial atoms


#--------------------Microbes and Functional Groups-------------------------#

group           CROSS1   type 1               # assign type 1,2 atoms to CROSS group
50 atoms in group CROSS1
group           CROSS2   type 2
50 atoms in group CROSS2
group		CHEATER  type 3
50 atoms in group CHEATER
group           dead     type 4
0 atoms in group dead
group		EPS	 type 5
0 atoms in group EPS

neighbor        5e-7 bin                   # setting neighbour skin distance and style

neigh_modify    check yes                  # rebuild neighbour list if any atom
                                           # had moved more than half the skin distance


#--------------------------Mesh Grid and Substrates--------------------------#

# defining grid sytle, substrate names, and grid size
grid_style      nufeb/chemostat 3 sub metab1 metab2 5e-6

# set diffusion boundary conditions and initial concentrations (liquid:kg/m3)
grid_modify     set sub      pp pp nd  1.8e-4
No /omp style for force computation currently active
grid_modify     set metab1   pp pp nd  1e-4
No /omp style for force computation currently active
grid_modify     set metab2   pp pp nd  1e-4
No /omp style for force computation currently active


#--------------------------Biological Processes-------------------------------#

# heterotrophs growth
fix growth_cross1 CROSS1 nufeb/growth/cross1 sub 3.5e-5 metab2 4e-3 metab1 growth 0.009 yield 0.6 decay 2.6e-6 metab1_exp 20 epsyield 0.12 epsdens 30

fix growth_cross2 CROSS2 nufeb/growth/cross2 sub 3.5e-5 metab1 4e-3 metab2 growth 0.009 yield 0.6 decay 2.6e-6 metab2_exp 20 epsyield 0.12 epsdens 30

fix growth_cheater CHEATER nufeb/growth/cheater sub 3.5e-5 metab1 1e-3 metab2 1e-3 growth 0.009 yield 0.6 decay 2.6e-6

# heterotrophs division, division diameter: 1.36e-6
fix div1 CROSS1 nufeb/division/coccus 1.36e-6 104
fix div2 CROSS2 nufeb/division/coccus 1.36e-6 110
fix div3 CHEATER nufeb/division/coccus 1.36e-6 118

fix death1 CROSS1 nufeb/death/diameter dead 5.43e-7
fix death2 CROSS2 nufeb/death/diameter dead 5.43e-7
fix death3 CHEATER nufeb/death/diameter dead 5.43e-7

# EPS secretion from heterotrophs
fix eps1 CROSS1 nufeb/eps_secretion 5 EPS 1.1 30 128
fix eps2 CROSS2 nufeb/eps_secretion 5 EPS 1.1 30 140

#---------------------------Physical Processes--------------------------------#

pair_style  gran/hooke/history 1e-4 NULL 1e-5 NULL 0.0 0    # pairwise interaction
pair_coeff  * *                                             # between atoms

# pairwise interaction between z-wall and atoms
fix wall all wall/gran hooke/history 1e-3 NULL 1e-4 NULL 0 0 zplane 0.0 1e-04

fix vis all viscous 1e-5                                    # viscous damping force

fix grav all gravity 9.81 vector 0.0 0.0 -1.0

fix nve all nve/limit 1e-7                                  # NVE integration with
                                                            # maximum distance limit


#---------------------------Post-Physical Processes---------------------------#

fix coeff_sub all nufeb/diffusion_coeff sub ratio 0.8       # defining diffusion coeff in the biofilm
fix coeff_metab1 all nufeb/diffusion_coeff metab1 ratio 0.8    # region is 80% of the value in liquid
fix coeff_metab2 all nufeb/diffusion_coeff metab2 ratio 0.8

#---------------------------Chemical Processes---------------------------------#

fix diff_sub all nufeb/diffusion_reaction sub 1e-9        # diffusion reaction for updating
fix diff_metab1 all nufeb/diffusion_reaction metab1 4e-9     # distribusion of substrate concentration
fix diff_metab2 all nufeb/diffusion_reaction metab2 4e-9

#--------------------------Computations and Outputs----------------------------#

variable mass equal "mass(all)"                             # total mass
variable ncross1 equal "count(CROSS1)"                      # total # of CROSS1
variable ncross2 equal "count(CROSS2)"                      # total # of CROSS2
variable ncheater equal "count(CHEATER)"
variable ndead equal "count(dead)"
variable neps equal "count(EPS)"

shell mkdir vtk_EPS_ch                                            # dump vtk files to /vtk folder
dump du1 all vtk 10 vtk_EPS_ch/dump*.vtu id type diameter         # require build NUFEB with vtk option
dump du2 all grid/vtk 10 vtk_EPS_ch/dump_%_*.vti con rea den gro

#dump du3 all movie 10 movie.avi type diameter view 80 60    # dump video
#dump_modify du3 acolor 1 blue acolor 2 lightgrey framerate 10


                                                            # dump hdf5 files to /hdf5 folder
#shell mkdir hdf5                                           # require build NUFEB with hdf5 option
#dump du3 all nufeb/hdf5 10 dump.h5 id type x y z vx vy vz fx fy fz radius conc reac

thermo_style custom step cpu atoms v_ncross1 v_ncross2 v_ncheater v_ndead v_neps v_mass     # screen and log outputs
thermo 1
thermo_modify   lost ignore

#-----------------------------------Run----------------------------------------#

# issue run command, define timesteps for physical (pairdt) and chemical (diffdt) processes
run_style nufeb diffdt 1e-4 difftol 1e-6 pairdt 1e-2 pairtol 1 pairmax 1000 diffmax 5000

timestep 12000                                               # define biological timesteps (1000s)

run 320                                                    # growing biofilm for 900x1000s
Generated 0 of 6 mixed pair_coeff terms from geometric mixing rule
Last active /omp style is pair_style gran/hooke/history/omp
Neighbor list info ...
  update every 1 steps, delay 10 steps, check yes
  max neighbors/atom: 2000, page size: 100000
  master list distance cutoff = 2.49e-06
  ghost atom cutoff = 2.49e-06
  binsize = 1.245e-06, bins = 49 49 49
  1 neighbor lists, perpetual/occasional/extra = 1 0 0
  (1) pair gran/hooke/history/omp, perpetual
      attributes: half, newton off, size, history, omp
      pair build: half/size/bin/newtoff/omp
      stencil: full/bin/3d
      bin: standard
Per MPI rank memory allocation (min/avg/max) = 11.02 | 11.02 | 11.02 Mbytes
   Step          CPU          Atoms      v_ncross1      v_ncross2      v_ncheater      v_ndead         v_neps         v_mass    
         0   0                    150   50             50             50             0              0              1.3295396e-13
         1   0.38482416           432   90             85             86             0              171            1.7279908e-13
         2   0.77030921           797   118            127            139            0              413            1.9575668e-13
         3   1.0916828           1127   131            144            179            0              673            2.1488522e-13
         4   1.4056931           1441   138            153            201            0              949            2.3277703e-13
         5   1.6189835           1748   141            158            218            0              1231           2.502414e-13 
         6   1.8016376           2074   148            167            235            0              1524           2.6758136e-13
         7   1.971439            2404   154            174            252            0              1824           2.8468801e-13
         8   2.1304804           2755   161            181            277            0              2136           3.0144599e-13
         9   2.2664308           3114   165            197            291            0              2461           3.1768704e-13
        10   7.5546808           3480   171            206            309            0              2794           3.3325247e-13
        11   7.6813267           3853   179            212            327            0              3135           3.4845368e-13
        12   7.7825503           4244   185            217            348            0              3494           3.6365658e-13
        13   7.8908417           4628   188            225            367            0              3848           3.7842309e-13
        14   7.9941803           5013   192            231            381            0              4209           3.9285718e-13
        15   8.0922837           5408   196            235            398            0              4579           4.0687484e-13
        16   8.1793164           5796   200            241            411            0              4944           4.2036037e-13
        17   8.2689024           6198   204            248            433            0              5313           4.33442e-13  
        18   8.3600365           6598   209            251            446            0              5692           4.461527e-13 
        19   8.4399358           6984   214            252            460            0              6058           4.5837013e-13
        20   8.5645776           7377   216            256            482            0              6423           4.7023054e-13
        21   8.6647558           7775   220            262            497            0              6796           4.8192252e-13
        22   8.7641396           8173   228            267            513            0              7165           4.9326218e-13
        23   8.8602507           8550   232            269            529            0              7520           5.0391388e-13
        24   8.9718085           8970   238            272            539            0              7921           5.1456635e-13
        25   9.0710941           9362   243            279            557            0              8283           5.2424214e-13
        26   9.1831096           9779   246            284            569            0              8680           5.3390992e-13
        27   9.2617734          10171   248            288            585            0              9050           5.4297875e-13
        28   9.3713792          10592   251            291            599            0              9451           5.5164426e-13
        29   9.4795072          10979   255            292            609            0              9823           5.6019346e-13
        30   9.7282016          11413   262            302            621            0              10228          5.688529e-13 
        31   9.8860196          11796   266            303            634            0              10593          5.7727136e-13
        32   10.08076           12216   269            306            644            0              10997          5.8593046e-13
        33   10.239471          12603   271            308            655            0              11369          5.9459563e-13
        34   10.429553          13008   273            308            673            0              11754          6.0329979e-13
        35   10.624505          13419   280            310            685            0              12144          6.1189676e-13
        36   10.873293          13809   284            312            700            0              12513          6.2027863e-13
        37   11.147849          14211   290            315            713            0              12893          6.2918125e-13
        38   11.434423          14628   291            317            731            0              13289          6.3796199e-13
        39   11.789623          15021   293            320            746            0              13662          6.4627618e-13
        40   12.521918          15414   293            324            764            0              14033          6.5440567e-13
        41   13.096711          15823   295            325            777            0              14426          6.625669e-13 
        42   13.547856          16222   296            328            799            0              14799          6.7040799e-13
        43   14.177682          16628   299            331            816            0              15182          6.7845227e-13
        44   15.108881          17019   304            336            826            0              15553          6.8623691e-13
        45   16.067189          17439   305            337            842            0              15955          6.9445292e-13
        46   17.019453          17833   306            337            864            0              16326          7.0216484e-13
        47   17.883302          18256   308            340            880            0              16728          7.0970543e-13
        48   18.901889          18652   312            343            897            0              17100          7.1724382e-13
        49   19.974911          19063   315            343            923            0              17482          7.2502577e-13
        50   21.130941          19469   318            347            938            0              17866          7.3303222e-13
        51   22.301355          19899   320            348            957            0              18274          7.4151135e-13
        52   23.463837          20293   322            349            981            1              18640          7.5029897e-13
        53   24.642677          20705   327            350            996            2              19030          7.5948409e-13
        54   25.825368          21110   328            351            1016           2              19413          7.6898257e-13
        55   27.019555          21544   333            352            1043           2              19814          7.7859821e-13
        56   28.214892          21944   334            353            1064           2              20191          7.8793055e-13
        57   29.417205          22354   335            354            1086           2              20577          7.9731074e-13
        58   30.636818          22760   337            354            1108           4              20957          8.0638496e-13
        59   31.86509           23173   339            354            1127           5              21348          8.1520635e-13
        60   33.221833          23578   340            357            1146           5              21730          8.2355181e-13
        61   34.587063          23999   342            360            1172           6              22119          8.320882e-13 
        62   36.049206          24416   344            360            1196           9              22507          8.4119464e-13
        63   37.57726           24833   345            360            1225           10             22893          8.510342e-13 
        64   39.095808          25260   346            363            1247           12             23292          8.6196779e-13
        65   40.643345          25673   346            364            1283           13             23667          8.7356673e-13
        66   42.186214          26109   349            365            1320           14             24061          8.8579273e-13
        67   43.765827          26522   349            365            1347           16             24445          8.9831363e-13
        68   45.313678          26934   350            365            1375           19             24825          9.1093929e-13
        69   46.853931          27342   351            365            1411           23             25192          9.2349562e-13
        70   48.486314          27777   352            369            1453           24             25579          9.3592014e-13
        71   50.072389          28190   352            372            1472           33             25961          9.4814637e-13
        72   51.695487          28615   353            372            1505           38             26347          9.6022347e-13
        73   53.535796          29040   354            372            1546           46             26722          9.7231392e-13
        74   55.343159          29453   354            373            1582           49             27095          9.8612838e-13
        75   57.207837          29888   355            373            1622           58             27480          1.0007967e-12
        76   59.095791          30290   357            373            1666           63             27831          1.0165706e-12
        77   61.021453          30718   358            374            1718           65             28203          1.0334589e-12
        78   62.96378           31137   359            374            1765           76             28563          1.0513476e-12
        79   64.877659          31545   359            375            1808           82             28921          1.0696567e-12
        80   66.914226          31970   359            375            1860           91             29285          1.0878128e-12
        81   68.901393          32379   359            375            1905           106            29634          1.1059546e-12
        82   70.900177          32804   359            376            1955           119            29995          1.123836e-12 
        83   72.951503          33211   359            376            2007           127            30342          1.1419373e-12
        84   75.101851          33642   359            377            2069           137            30700          1.1604894e-12
        85   77.293486          34057   359            377            2124           150            31047          1.1796426e-12
        86   79.531787          34489   359            377            2183           163            31407          1.2000153e-12
        87   81.808873          34910   361            379            2255           174            31741          1.2209972e-12
        88   84.14271           35341   361            380            2328           185            32087          1.242697e-12 
        89   86.505805          35758   361            380            2402           191            32424          1.2656316e-12
        90   88.984625          36185   363            381            2469           209            32763          1.2896881e-12
        91   91.391494          36616   364            381            2536           220            33115          1.3137351e-12
        92   93.809748          37022   364            381            2603           232            33442          1.3374548e-12
        93   96.28933           37442   365            381            2677           245            33774          1.360717e-12 
        94   98.817552          37877   365            381            2764           252            34115          1.3839591e-12
        95   101.3262           38301   365            381            2842           261            34452          1.4066778e-12
        96   103.95266          38734   365            381            2921           271            34796          1.4287569e-12
        97   106.65301          39133   366            381            2985           281            35120          1.4510884e-12
        98   109.41305          39546   366            381            3063           290            35446          1.4738351e-12
        99   112.20607          39964   366            382            3146           297            35773          1.4978296e-12
       100   115.23967          40424   367            382            3248           303            36124          1.5221991e-12
       101   118.20907          40819   367            384            3333           308            36427          1.5473143e-12
       102   121.16399          41243   367            385            3420           314            36757          1.5730421e-12
       103   124.15801          41660   367            385            3516           319            37073          1.5988681e-12
       104   127.1637           42078   367            385            3598           322            37406          1.6250542e-12
       105   130.20793          42495   367            385            3691           329            37723          1.6508527e-12
       106   133.29325          42933   367            385            3787           332            38062          1.6762123e-12
       107   136.4652           43329   368            385            3880           338            38358          1.7008905e-12
       108   139.71565          43766   368            385            3970           345            38698          1.7258409e-12
       109   143.03615          44171   368            385            4068           348            39002          1.7508388e-12
       110   146.51175          44601   368            385            4164           356            39328          1.77697e-12  
       111   149.97298          45022   368            385            4258           362            39649          1.804269e-12 
       112   153.53464          45454   368            385            4376           366            39959          1.8335821e-12
       113   157.10581          45861   368            385            4477           376            40255          1.8636072e-12
       114   160.73789          46331   368            386            4597           388            40592          1.8951091e-12
       115   164.43228          46725   368            386            4698           403            40870          1.9272906e-12
       116   168.18813          47181   368            386            4820           415            41192          1.9603281e-12
       117   171.97752          47600   368            387            4923           435            41487          1.9931913e-12
       118   175.82868          48022   368            387            5021           462            41784          2.0261094e-12
       119   179.74981          48487   368            387            5144           486            42102          2.058632e-12 
       120   183.85411          48913   368            387            5278           512            42368          2.0912125e-12
       121   187.92148          49375   368            387            5393           538            42689          2.1248121e-12
       122   192.06721          49818   368            387            5510           560            42993          2.1591038e-12
       123   196.27426          50229   368            387            5626           592            43256          2.1940604e-12
       124   200.54658          50730   368            387            5782           611            43582          2.2313903e-12
       125   204.88834          51183   368            388            5912           652            43863          2.269205e-12 
       126   209.31937          51640   368            388            6059           685            44140          2.3079303e-12
       127   213.8038           52107   368            388            6190           711            44450          2.3475555e-12
       128   218.37695          52543   368            388            6308           769            44710          2.387131e-12 
       129   223.03767          53047   368            388            6447           811            45033          2.4270123e-12
       130   227.92403          53493   368            388            6581           856            45300          2.4663968e-12
       131   232.76829          53941   368            388            6683           917            45585          2.506768e-12 
       132   237.67325          54403   367            388            6785           979            45884          2.5490583e-12
       133   242.6837           54851   367            388            6905           1044           46147          2.5928552e-12
       134   247.77424          55344   367            388            7038           1103           46448          2.6393985e-12
       135   252.96049          55801   367            388            7153           1165           46728          2.6866944e-12
       136   258.24876          56276   367            388            7304           1223           46994          2.7360872e-12
       137   263.6195           56789   367            388            7446           1290           47298          2.7862831e-12
       138   269.0962           57275   367            388            7591           1365           47564          2.8369613e-12
       139   274.6376           57739   368            388            7708           1432           47843          2.8887904e-12
       140   280.46097          58245   368            388            7873           1499           48117          2.9417154e-12
       141   286.22552          58773   368            388            8042           1571           48404          2.9968416e-12
       142   292.08496          59269   368            388            8196           1636           48681          3.0546367e-12
       143   298.04547          59766   368            388            8368           1693           48949          3.1154973e-12
       144   304.10299          60287   368            388            8530           1776           49225          3.179817e-12 
       145   310.26901          60818   367            388            8732           1832           49499          3.2476201e-12
       146   316.56146          61346   367            388            8927           1893           49771          3.3183268e-12
       147   322.9593           61883   367            388            9137           1949           50042          3.3908164e-12
       148   329.50617          62465   367            388            9375           2014           50321          3.4669567e-12
       149   336.14258          63027   367            388            9614           2071           50587          3.5463581e-12
       150   343.08823          63632   367            388            9886           2129           50862          3.6331875e-12
       151   350.01883          64236   367            387            10175          2177           51130          3.726091e-12 
       152   357.08303          64831   367            387            10472          2220           51385          3.827684e-12 
       153   364.30885          65473   367            388            10782          2274           51662          3.9380921e-12
       154   371.64746          66120   367            388            11145          2312           51908          4.0591662e-12
       155   379.14461          66821   367            388            11549          2351           52166          4.1893298e-12
       156   386.78114          67543   367            388            11959          2395           52434          4.3253742e-12
       157   394.58037          68261   368            388            12380          2449           52676          4.4622345e-12
       158   402.51088          69021   367            388            12813          2502           52951          4.6063896e-12
       159   410.59801          69731   367            388            13235          2544           53197          4.7443969e-12
       160   419.02385          70482   367            389            13695          2595           53436          4.8881089e-12
       161   427.42295          71263   367            388            14169          2651           53688          5.0310147e-12
       162   435.99224          72005   367            388            14587          2712           53951          5.1792615e-12
       163   444.74238          72766   367            387            15043          2777           54192          5.3256464e-12
       164   453.69266          73539   367            386            15537          2816           54433          5.476514e-12 
       165   462.8353           74357   368            386            16073          2851           54679          5.6331692e-12
       166   472.1279           75143   368            385            16553          2914           54923          5.7749758e-12
       167   481.61928          75935   368            386            17039          2983           55159          5.9286716e-12
       168   491.28704          76729   369            385            17518          3063           55394          6.0814897e-12
       169   501.13272          77527   369            385            17984          3156           55633          6.2385747e-12
       170   511.31284          78390   369            385            18517          3257           55862          6.4179255e-12
       171   521.53249          79243   369            385            19029          3376           56084          6.5913446e-12
       172   531.81898          80086   368            385            19537          3486           56310          6.769614e-12 
       173   542.24776          80939   368            385            20069          3592           56525          6.9440139e-12
       174   552.85132          81839   368            384            20647          3694           56746          7.1277537e-12
       175   563.59278          82790   367            383            21299          3794           56947          7.3182265e-12
       176   574.44102          83680   367            381            21862          3926           57144          7.5172556e-12
       177   585.37891          84618   367            381            22490          4036           57344          7.7197536e-12
       178   596.4508           85575   367            377            23161          4149           57521          7.927713e-12 
       179   607.60718          86504   367            375            23758          4283           57721          8.1437069e-12
       180   619.11205          87454   367            375            24429          4409           57874          8.356648e-12 
       181   630.4895           88380   367            375            25022          4568           58048          8.5439812e-12
       182   642.07538          89356   366            372            25676          4735           58207          8.7696413e-12
       183   653.72676          90319   366            372            26302          4898           58381          8.9667867e-12
       184   665.54016          91232   366            372            26904          5082           58508          9.1727033e-12
       185   677.44968          92176   366            372            27530          5262           58646          9.385623e-12 
       186   689.44694          93095   365            371            28156          5433           58770          9.5840683e-12
       187   701.49559          94073   365            369            28825          5620           58894          9.7845663e-12
       188   713.65149          95073   365            369            29522          5799           59018          9.9980247e-12
       189   725.88006          95921   364            367            30042          6025           59123          1.0185711e-11
       190   738.42975          96845   364            363            30627          6263           59228          1.0386483e-11
       191   750.83238          97793   364            362            31246          6488           59333          1.0571788e-11
       192   763.33535          98638   362            357            31775          6720           59424          1.0741219e-11
       193   775.88348          99505   362            353            32322          6980           59488          1.0921124e-11
       194   788.49716         100285   362            352            32758          7244           59569          1.1046782e-11
       195   801.20682         101066   361            348            33217          7503           59637          1.1200769e-11
       196   814.00968         101882   357            345            33710          7749           59721          1.1316038e-11
       197   826.89576         102708   356            343            34206          7998           59805          1.1438234e-11
       198   839.82931         103331   353            342            34509          8266           59861          1.1520035e-11
       199   852.81243         104010   353            334            34915          8489           59919          1.161461e-11 
       200   866.13007         104646   352            330            35285          8696           59983          1.1699742e-11
       201   879.2661          105343   350            326            35716          8904           60047          1.1779889e-11
       202   892.50223         105967   349            321            36114          9090           60093          1.1829033e-11
       203   905.83701         106655   344            317            36565          9298           60131          1.1900466e-11
       204   919.21755         107251   341            311            36913          9506           60180          1.1949359e-11
       205   932.6878          107755   334            307            37181          9711           60222          1.198232e-11 
       206   946.20712         108320   329            303            37503          9926           60259          1.2020528e-11
       207   959.82721         108937   322            300            37861          10151          60303          1.2067151e-11
       208   973.45832         109461   315            296            38124          10390          60336          1.2091632e-11
       209   987.12094         110016   308            286            38360          10671          60391          1.2105146e-11
       210   1001.0467         110459   296            280            38489          10963          60431          1.210236e-11 
       211   1014.8074         110989   289            272            38704          11249          60475          1.2118491e-11
       212   1028.609          111484   281            263            38880          11544          60516          1.2127048e-11
       213   1042.5086         111997   265            256            39038          11873          60565          1.213431e-11 
       214   1056.423          112428   255            253            39108          12209          60603          1.2141328e-11
       215   1070.4288         112896   248            245            39257          12502          60644          1.2140752e-11
       216   1084.525          113362   237            235            39347          12857          60686          1.2121718e-11
       217   1098.692          113813   228            228            39429          13213          60715          1.2129601e-11
       218   1112.8645         114262   220            219            39495          13578          60750          1.2125976e-11
       219   1127.0666         114714   207            209            39582          13924          60792          1.212355e-11 
       220   1141.6368         115163   199            193            39656          14291          60824          1.2137531e-11
       221   1155.9846         115601   186            175            39760          14615          60865          1.2121255e-11
       222   1170.4102         116041   172            164            39898          14905          60902          1.2120377e-11
       223   1184.8985         116463   165            156            39965          15233          60944          1.2111933e-11
       224   1199.4903         116845   159            147            39992          15561          60986          1.2090698e-11
       225   1214.1558         117306   146            140            40124          15876          61020          1.2101877e-11
       226   1228.8747         117741   134            131            40238          16187          61051          1.2094095e-11
       227   1243.6492         118122   127            125            40267          16521          61082          1.2067984e-11
       228   1258.4918         118522   122            112            40305          16864          61119          1.2048484e-11
       229   1273.4101         119028   111            107            40453          17195          61162          1.2088842e-11
       230   1288.654          119360   103            97             40422          17536          61202          1.2067153e-11
       231   1303.754          119870   94             88             40652          17805          61231          1.207919e-11 
       232   1318.9154         120202   83             79             40657          18126          61257          1.2078625e-11
       233   1334.1696         120593   75             76             40739          18418          61285          1.2071623e-11
       234   1349.4428         121013   72             74             40828          18711          61328          1.2082879e-11
       235   1364.8184         121404   70             67             40880          19030          61357          1.2044145e-11
       236   1380.2203         121795   67             63             40936          19348          61381          1.2053992e-11
       237   1395.6602         122201   66             59             41010          19647          61419          1.2039651e-11
       238   1411.2104         122556   62             54             40957          20030          61453          1.2028768e-11
       239   1426.8472         122952   55             53             40982          20379          61483          1.2024846e-11
       240   1442.7937         123363   49             50             41024          20733          61507          1.204203e-11 
       241   1458.5896         123735   45             50             40959          21137          61544          1.2038488e-11
       242   1474.4231         124182   45             48             41028          21492          61569          1.2044889e-11
       243   1490.3785         124501   42             44             40937          21882          61596          1.205195e-11 
       244   1506.3477         124843   40             40             40859          22282          61622          1.2033109e-11
       245   1522.427          125260   39             40             40862          22666          61653          1.2034132e-11
       246   1538.5669         125674   39             39             40830          23089          61677          1.2044875e-11
       247   1554.7479         126020   37             36             40720          23521          61706          1.2035107e-11
       248   1571.0024         126289   35             31             40498          23998          61727          1.2021055e-11
       249   1587.3536         126711   32             30             40449          24449          61751          1.2027605e-11
       250   1604.0364         127074   32             30             40319          24916          61777          1.203657e-11 
       251   1620.4273         127380   32             29             40152          25365          61802          1.2003622e-11
       252   1636.8514         127736   30             29             39986          25867          61824          1.2020201e-11
       253   1653.3049         128095   30             27             39873          26317          61848          1.2011153e-11
       254   1669.8573         128473   29             27             39738          26806          61873          1.2026003e-11
       255   1686.4492         128836   29             27             39550          27331          61899          1.2038833e-11
       256   1703.1674         129254   29             26             39417          27862          61920          1.2033654e-11
       257   1719.9462         129513   28             24             39115          28403          61943          1.2039675e-11
       258   1736.8147         129876   27             24             38931          28927          61967          1.2046409e-11
       259   1753.7291         130250   26             24             38825          29387          61988          1.204171e-11 
       260   1770.9746         130630   26             24             38718          29849          62013          1.2060299e-11
       261   1788.0174         130920   26             24             38498          30337          62035          1.2050513e-11
       262   1805.0907         131324   25             24             38401          30814          62060          1.2072779e-11
       263   1822.2726         131661   24             24             38239          31293          62081          1.207525e-11 
       264   1839.4925         131953   24             24             38037          31768          62100          1.208914e-11 
       265   1856.6502         132384   24             24             37990          32220          62126          1.210211e-11 
       266   1873.8714         132685   24             24             37822          32670          62145          1.2121991e-11
       267   1891.2978         133065   24             24             37708          33132          62177          1.211188e-11 
       268   1908.7918         133335   23             24             37509          33585          62194          1.2096714e-11
       269   1926.3193         133624   23             23             37323          34031          62224          1.2099102e-11
       270   1944.2468         133996   23             22             37267          34446          62238          1.2111148e-11
       271   1961.828          134363   23             22             37221          34831          62266          1.2133212e-11
       272   1979.3907         134656   23             22             37145          35182          62284          1.2126396e-11
       273   1997.1356         134992   22             22             37036          35602          62310          1.2152983e-11
       274   2014.9054         135300   22             22             36919          36009          62328          1.2170636e-11
       275   2032.7046         135638   22             22             36807          36431          62356          1.2184935e-11
       276   2050.5287         136048   22             22             36837          36794          62373          1.2202486e-11
       277   2068.5182         136370   22             22             36762          37163          62401          1.2186493e-11
       278   2086.6106         136692   22             21             36682          37549          62418          1.2193949e-11
       279   2104.6197         137046   22             21             36671          37887          62445          1.2217609e-11
       280   2122.9835         137279   22             21             36544          38232          62460          1.2230942e-11
       281   2141.1352         137646   22             21             36527          38586          62490          1.2230663e-11
       282   2159.323          137972   22             21             36469          38955          62505          1.2226438e-11
       283   2177.551          138444   22             21             36544          39323          62534          1.2269141e-11
       284   2195.7677         138669   22             21             36409          39666          62551          1.2283285e-11
       285   2214.1523         138974   22             21             36332          40021          62578          1.2277503e-11
       286   2232.5254         139338   22             21             36351          40345          62599          1.229715e-11 
       287   2250.8344         139674   22             21             36322          40685          62624          1.2317985e-11
       288   2269.2988         140014   22             21             36284          41043          62644          1.2312017e-11
       289   2287.755          140302   22             21             36210          41377          62672          1.2319804e-11
       290   2306.5135         140656   22             21             36217          41704          62692          1.2348844e-11
       291   2325.1711         140997   22             21             36212          42022          62720          1.2348023e-11
       292   2343.9771         141273   22             21             36134          42358          62738          1.2336512e-11
       293   2362.9374         141629   21             21             36153          42672          62762          1.2359873e-11
       294   2382.0543         141890   20             21             36078          42987          62784          1.2366001e-11
       295   2400.9719         142290   20             21             36152          43289          62808          1.2401202e-11
       296   2419.9164         142606   20             21             36117          43621          62827          1.2409163e-11
       297   2438.9715         142927   20             21             36115          43919          62852          1.2407397e-11
       298   2458.1773         143248   19             21             36098          44240          62870          1.2419995e-11
       299   2477.3985         143543   19             21             36031          44579          62893          1.2424516e-11
       300   2496.9553         143894   19             21             36025          44916          62913          1.2451269e-11
       301   2516.2366         144192   19             21             35933          45284          62935          1.2449537e-11
       302   2535.5514         144495   19             21             35896          45602          62957          1.2461032e-11
       303   2554.9352         144840   19             21             35912          45909          62979          1.2482143e-11
       304   2574.3322         145145   19             21             35905          46199          63001          1.2474147e-11
       305   2593.7955         145455   19             21             35872          46522          63021          1.2503885e-11
       306   2613.3161         145740   19             21             35834          46821          63045          1.2487245e-11
       307   2632.8707         146075   19             21             35836          47134          63065          1.2515211e-11
       308   2652.5296         146345   19             21             35788          47426          63091          1.2509197e-11
       309   2672.2481         146651   19             21             35806          47699          63106          1.2506294e-11
       310   2692.3596         147019   19             21             35838          48007          63134          1.2541725e-11
       311   2712.1977         147315   19             21             35807          48318          63150          1.2541004e-11
       312   2732.0358         147640   19             21             35783          48640          63177          1.2542353e-11
       313   2752.0131         147975   19             21             35765          48977          63193          1.2562179e-11
       314   2771.9797         148285   19             21             35722          49302          63221          1.2579636e-11
       315   2792.038          148570   19             21             35696          49595          63239          1.2592249e-11
       316   2812.124          148911   19             21             35718          49889          63264          1.260094e-11 
       317   2832.301          149196   19             21             35675          50198          63283          1.259784e-11 
       318   2852.5341         149499   19             21             35642          50507          63310          1.2614751e-11
       319   2872.9333         149829   19             21             35610          50848          63331          1.2615218e-11
       320   2893.652          150130   19             21             35546          51189          63355          1.2622747e-11
Loop time of 2893.65 on 16 procs for 320 steps with 150130 atoms

97.8% CPU use with 16 MPI tasks x 1 OpenMP threads

MPI task timing breakdown:
Section |  min time  |  avg time  |  max time  |%varavg| %total
---------------------------------------------------------------
Pair    | 826.85     | 923.79     | 1091.5     | 285.6 | 31.92
Neigh   | 496.78     | 581.29     | 805.57     | 486.3 | 20.09
Comm    | 340.85     | 431.76     | 528.03     | 297.3 | 14.92
Output  | 11.594     | 11.594     | 11.595     |   0.0 |  0.40
Modify  | 463.54     | 931.04     | 1157.2     | 800.4 | 32.18
Other   |            | 14.18      |            |       |  0.49

Nlocal:        9383.12 ave       12445 max        8171 min
Histogram: 10 2 0 0 0 0 0 0 0 4
Nghost:         7299.5 ave        9464 max        6233 min
Histogram: 4 6 2 0 0 0 0 0 0 4
Neighs:        93192.7 ave      104382 max       88368 min
Histogram: 6 4 2 0 0 0 0 0 3 1

Total # of neighbors = 1491083
Ave neighs/atom = 9.9319456
Neighbor list builds = 28085
Dangerous builds = 27765

Total wall time: 0:48:36
