LAMMPS (23 Jun 2022 - Update 4)
  using 1 OpenMP thread(s) per MPI task
package omp 0
using multi-threaded neighbor list subroutines
#-----------------------------------------------------------------------------#
#                NUFEB Simulation: Heterotrophic Biofilm Growth               #
#-----------------------------------------------------------------------------#


#-----------------------------System Settings---------------------------------#

units si                                    # using si units (m, s, kg)
atom_style      coccus                      # using nufeb coccus atom style
atom_modify     map array sort 10 0         # map array - find atoms using indices
		                            # sort every 10

boundary        pp pp ff                    # periodic boundaries in x and y
                                            # fixed boundary in z

newton          off                         # forces between local and ghost
                                            # atoms are computed in each
					     # processor without communication

processors      * * 1                       # processor grid

comm_modify     vel yes                     # communicate velocities for ghost atoms

read_data       atom_ch.in	             # read atom.in file which defines domain size
Reading data file ...
  orthogonal box = (0 0 0) to (6e-05 6e-05 6e-05)
  4 by 4 by 1 MPI processor grid
  reading atoms ...
  150 atoms
  read_data CPU = 0.012 seconds
                                            # and initial atoms


#--------------------Microbes and Functional Groups-------------------------#

group           CROSS1   type 1               # assign type 1,2 atoms to CROSS group
50 atoms in group CROSS1
group           CROSS2   type 2
50 atoms in group CROSS2
group		CHEATER  type 3
50 atoms in group CHEATER
group           dead     type 4
0 atoms in group dead
group		EPS	 type 5
0 atoms in group EPS

neighbor        5e-7 bin                   # setting neighbour skin distance and style

neigh_modify    check yes                  # rebuild neighbour list if any atom
                                           # had moved more than half the skin distance


#--------------------------Mesh Grid and Substrates--------------------------#

# defining grid sytle, substrate names, and grid size
grid_style      nufeb/chemostat 3 sub metab1 metab2 5e-6

# set diffusion boundary conditions and initial concentrations (liquid:kg/m3)
grid_modify     set sub      pp pp nd  1.8e-4
No /omp style for force computation currently active
grid_modify     set metab1   pp pp nd  1e-4
No /omp style for force computation currently active
grid_modify     set metab2   pp pp nd  1e-4
No /omp style for force computation currently active


#--------------------------Biological Processes-------------------------------#

# heterotrophs growth
fix growth_cross1 CROSS1 nufeb/growth/cross1 sub 3.5e-5 metab2 4e-3 metab1 growth 0.009 yield 0.6 decay 2.6e-6 metab1_exp 20 epsyield 0.12 epsdens 30

fix growth_cross2 CROSS2 nufeb/growth/cross2 sub 3.5e-5 metab1 4e-3 metab2 growth 0.009 yield 0.6 decay 2.6e-6 metab2_exp 20 epsyield 0.12 epsdens 30

fix growth_cheater CHEATER nufeb/growth/cheater sub 3.5e-5 metab1 1e-3 metab2 1e-3 growth 0.009 yield 0.6 decay 2.6e-6

# heterotrophs division, division diameter: 1.36e-6
fix div1 CROSS1 nufeb/division/coccus 1.36e-6 224
fix div2 CROSS2 nufeb/division/coccus 1.36e-6 590
fix div3 CHEATER nufeb/division/coccus 1.36e-6 1198

fix death1 CROSS1 nufeb/death/diameter dead 5.43e-7
fix death2 CROSS2 nufeb/death/diameter dead 5.43e-7
fix death3 CHEATER nufeb/death/diameter dead 5.43e-7

# EPS secretion from heterotrophs
fix eps1 CROSS1 nufeb/eps_secretion 5 EPS 1.1 30 2048
fix eps2 CROSS2 nufeb/eps_secretion 5 EPS 1.1 30 3140

#---------------------------Physical Processes--------------------------------#

pair_style  gran/hooke/history 1e-4 NULL 1e-5 NULL 0.0 0    # pairwise interaction
pair_coeff  * *                                             # between atoms

# pairwise interaction between z-wall and atoms
fix wall all wall/gran hooke/history 1e-3 NULL 1e-4 NULL 0 0 zplane 0.0 1e-04

fix vis all viscous 1e-5                                    # viscous damping force

fix grav all gravity 9.81 vector 0.0 0.0 -1.0

fix nve all nve/limit 1e-7                                  # NVE integration with
                                                            # maximum distance limit


#---------------------------Post-Physical Processes---------------------------#

fix coeff_sub all nufeb/diffusion_coeff sub ratio 0.8       # defining diffusion coeff in the biofilm
fix coeff_metab1 all nufeb/diffusion_coeff metab1 ratio 0.8    # region is 80% of the value in liquid
fix coeff_metab2 all nufeb/diffusion_coeff metab2 ratio 0.8

#---------------------------Chemical Processes---------------------------------#

fix diff_sub all nufeb/diffusion_reaction sub 1e-9        # diffusion reaction for updating
fix diff_metab1 all nufeb/diffusion_reaction metab1 4e-9     # distribusion of substrate concentration
fix diff_metab2 all nufeb/diffusion_reaction metab2 4e-9

#--------------------------Computations and Outputs----------------------------#

variable mass equal "mass(all)"                             # total mass
variable ncross1 equal "count(CROSS1)"                      # total # of CROSS1
variable ncross2 equal "count(CROSS2)"                      # total # of CROSS2
variable ncheater equal "count(CHEATER)"
variable ndead equal "count(dead)"
variable neps equal "count(EPS)"

shell mkdir vtk_EPS_ch                                            # dump vtk files to /vtk folder
dump du1 all vtk 10 vtk_EPS_ch/dump*.vtu id type diameter         # require build NUFEB with vtk option
dump du2 all grid/vtk 10 vtk_EPS_ch/dump_%_*.vti con rea den gro

#dump du3 all movie 10 movie.avi type diameter view 80 60    # dump video
#dump_modify du3 acolor 1 blue acolor 2 lightgrey framerate 10


                                                            # dump hdf5 files to /hdf5 folder
#shell mkdir hdf5                                           # require build NUFEB with hdf5 option
#dump du3 all nufeb/hdf5 10 dump.h5 id type x y z vx vy vz fx fy fz radius conc reac

thermo_style custom step cpu atoms v_ncross1 v_ncross2 v_ncheater v_ndead v_neps v_mass     # screen and log outputs
thermo 1
thermo_modify   lost ignore

#-----------------------------------Run----------------------------------------#

# issue run command, define timesteps for physical (pairdt) and chemical (diffdt) processes
run_style nufeb diffdt 1e-4 difftol 1e-6 pairdt 1e-2 pairtol 1 pairmax 1000 diffmax 5000

timestep 12000                                               # define biological timesteps (1000s)

run 320                                                    # growing biofilm for 900x1000s
Generated 0 of 6 mixed pair_coeff terms from geometric mixing rule
Last active /omp style is pair_style gran/hooke/history/omp
Neighbor list info ...
  update every 1 steps, delay 10 steps, check yes
  max neighbors/atom: 2000, page size: 100000
  master list distance cutoff = 2.49e-06
  ghost atom cutoff = 2.49e-06
  binsize = 1.245e-06, bins = 49 49 49
  1 neighbor lists, perpetual/occasional/extra = 1 0 0
  (1) pair gran/hooke/history/omp, perpetual
      attributes: half, newton off, size, history, omp
      pair build: half/size/bin/newtoff/omp
      stencil: full/bin/3d
      bin: standard
Per MPI rank memory allocation (min/avg/max) = 11.02 | 11.02 | 11.02 Mbytes
   Step          CPU          Atoms      v_ncross1      v_ncross2      v_ncheater      v_ndead         v_neps         v_mass    
         0   0                    150   50             50             50             0              0              1.3295396e-13
         1   0.38479046           432   90             85             86             0              171            1.7278759e-13
         2   0.76622904           800   121            126            136            0              417            1.9575298e-13
         3   1.0860029           1127   129            141            182            0              675            2.146443e-13 
         4   1.3813935           1426   137            148            200            0              941            2.3224331e-13
         5   1.5836826           1733   141            153            216            0              1223           2.4920809e-13
         6   1.7559361           2035   147            162            227            0              1499           2.657832e-13 
         7   1.921031            2378   156            169            249            0              1804           2.8217092e-13
         8   2.0718744           2736   166            177            268            0              2125           2.9863736e-13
         9   2.2160574           3096   171            189            286            0              2450           3.1457614e-13
        10   2.3663954           3488   178            205            309            0              2796           3.3026691e-13
        11   2.5131394           3873   179            210            328            0              3156           3.4572956e-13
        12   2.6095169           4246   182            220            338            0              3506           3.6050214e-13
        13   2.7183691           4647   187            225            358            0              3877           3.751172e-13 
        14   2.8439153           5041   195            231            373            0              4242           3.8915302e-13
        15   2.9694965           5452   204            237            394            0              4617           4.0290472e-13
        16   3.0972055           5852   208            239            408            0              4997           4.1613221e-13
        17   3.1776412           6254   212            241            425            0              5376           4.2909893e-13
        18   3.2615286           6645   217            244            438            0              5746           4.4120734e-13
        19   3.3868721           7028   219            245            457            0              6107           4.5310584e-13
        20   3.55281             7450   229            254            470            0              6497           4.6470813e-13
        21   3.6248455           7840   234            257            483            0              6866           4.7578253e-13
        22   3.7298085           8247   237            262            499            0              7249           4.8664161e-13
        23   3.8053031           8667   240            268            521            0              7638           4.9726853e-13
        24   3.8944587           9046   242            273            531            0              8000           5.0736275e-13
        25   3.9977046           9449   246            277            544            0              8382           5.1729043e-13
        26   4.0857563           9848   254            279            558            0              8757           5.2710174e-13
        27   4.1932776          10271   258            283            575            0              9155           5.3664676e-13
        28   4.2858547          10653   264            286            589            0              9514           5.4566843e-13
        29   4.3873073          11069   267            289            598            0              9915           5.5445593e-13
        30   4.7141113          11469   268            293            606            0              10302          5.6291822e-13
        31   4.8076977          11863   271            295            617            0              10680          5.7087167e-13
        32   4.9449278          12262   272            300            630            0              11060          5.7863916e-13
        33   5.0622859          12669   274            305            637            0              11453          5.8616495e-13
        34   5.1832394          13044   280            306            645            0              11813          5.9334547e-13
        35   5.327521           13454   282            307            652            0              12213          6.006511e-13 
        36   5.5191506          13835   284            309            658            0              12584          6.0745604e-13
        37   5.7423578          14248   289            312            667            0              12980          6.140871e-13 
        38   6.0241223          14628   291            316            676            0              13345          6.2026454e-13
        39   6.3801886          15044   294            319            685            0              13746          6.2635394e-13
        40   48.599075          15446   296            322            693            0              14135          6.317887e-13 
        41   49.102256          15861   303            329            697            0              14532          6.3700679e-13
        42   49.774498          16266   306            333            703            0              14924          6.4210076e-13
        43   50.171361          16673   310            333            711            0              15319          6.4687346e-13
        44   51.061601          17089   314            334            716            0              15725          6.5146942e-13
        45   51.969954          17505   316            336            724            0              16129          6.5567083e-13
        46   52.897534          17918   318            337            728            0              16535          6.5972e-13   
        47   53.849954          18340   323            338            737            0              16942          6.6337704e-13
        48   54.785034          18756   325            340            738            0              17353          6.6674569e-13
        49   55.721694          19183   331            341            741            0              17770          6.7033889e-13
        50   56.742112          19592   335            341            745            0              18171          6.7394196e-13
        51   57.739511          20014   336            345            750            0              18583          6.7765335e-13
        52   58.738733          20421   336            347            754            0              18984          6.8107689e-13
        53   59.754622          20845   338            349            754            0              19404          6.8451528e-13
        54   60.832576          21274   343            351            760            0              19820          6.8790773e-13
        55   61.923468          21711   349            352            767            0              20243          6.9095706e-13
        56   63.016293          22134   350            354            769            0              20661          6.9385185e-13
        57   64.154687          22573   351            357            772            0              21093          6.967417e-13 
        58   65.322542          22991   352            359            776            0              21504          6.9951814e-13
        59   66.497155          23452   353            360            782            0              21957          7.0226272e-13
        60   67.798429          23850   356            360            788            0              22346          7.0467991e-13
        61   69.025696          24309   358            363            791            0              22797          7.0711907e-13
        62   70.278804          24733   361            366            795            1              23210          7.0936665e-13
        63   71.55097           25196   361            368            797            2              23668          7.1173606e-13
        64   72.84349           25604   362            368            800            2              24072          7.1406359e-13
        65   74.207935          26062   364            369            801            3              24525          7.1664587e-13
        66   75.586191          26465   365            369            803            5              24923          7.1897343e-13
        67   76.991856          26919   368            369            803            6              25373          7.2181737e-13
        68   78.437176          27335   369            369            808            6              25783          7.2442404e-13
        69   79.900831          27773   371            371            808            11             26212          7.2687238e-13
        70   81.477556          28222   374            373            808            14             26653          7.2938569e-13
        71   83.014761          28639   377            373            808            18             27063          7.318795e-13 
        72   84.550475          29089   378            377            808            21             27505          7.3456017e-13
        73   86.142697          29510   380            379            806            26             27919          7.3711261e-13
        74   87.771911          29972   381            382            807            29             28373          7.4002901e-13
        75   89.448974          30403   381            383            807            33             28799          7.4317924e-13
        76   91.149051          30836   384            384            800            45             29223          7.4662212e-13
        77   92.90409           31292   385            385            804            48             29670          7.5054297e-13
        78   94.726912          31729   386            386            803            57             30097          7.5470097e-13
        79   96.581698          32173   386            387            805            66             30529          7.596351e-13 
        80   98.573404          32605   387            388            810            70             30950          7.6518984e-13
        81   100.55593          33043   388            388            818            74             31375          7.7118584e-13
        82   102.52754          33486   388            390            827            81             31800          7.7789536e-13
        83   104.53673          33912   389            394            833            91             32205          7.849212e-13 
        84   106.58027          34377   391            395            841            99             32651          7.9253438e-13
        85   108.62871          34808   394            396            855            105            33058          8.0046541e-13
        86   110.75782          35258   396            398            868            114            33482          8.0865665e-13
        87   112.90203          35694   398            399            873            131            33893          8.1741263e-13
        88   115.06622          36146   399            400            889            140            34318          8.2636947e-13
        89   117.25939          36596   400            401            915            147            34733          8.3541018e-13
        90   119.65981          37032   401            401            931            151            35148          8.4492428e-13
        91   121.94158          37467   404            401            950            157            35555          8.5519062e-13
        92   124.24377          37917   405            401            967            167            35977          8.6556852e-13
        93   126.66645          38342   406            402            1006           168            36360          8.7605269e-13
        94   129.1034           38781   407            403            1033           171            36767          8.8789743e-13
        95   131.60925          39207   410            403            1069           174            37151          8.9995127e-13
        96   134.15599          39653   411            403            1102           177            37560          9.1322542e-13
        97   136.79018          40067   413            403            1133           183            37935          9.2718396e-13
        98   139.39473          40523   414            405            1182           186            38336          9.4243745e-13
        99   142.00562          40930   417            406            1227           189            38691          9.5770834e-13
       100   144.80602          41364   418            406            1263           197            39080          9.7329008e-13
       101   147.56945          41798   419            408            1311           200            39460          9.8915799e-13
       102   150.29525          42196   421            410            1355           205            39805          1.0050279e-12
       103   153.06377          42624   422            410            1400           214            40178          1.0213291e-12
       104   155.84664          43043   425            413            1447           218            40540          1.0378841e-12
       105   158.65124          43448   426            413            1486           224            40899          1.0543726e-12
       106   161.49878          43854   427            415            1532           231            41249          1.0706832e-12
       107   164.38803          44289   430            417            1586           235            41621          1.0868289e-12
       108   167.3092           44666   432            417            1633           239            41945          1.102479e-12 
       109   170.27508          45079   435            419            1672           246            42307          1.117768e-12 
       110   173.39036          45506   436            419            1717           255            42679          1.1323943e-12
       111   176.46295          45885   437            423            1752           265            43008          1.1460663e-12
       112   179.52342          46297   439            425            1785           271            43377          1.1592111e-12
       113   182.64533          46696   443            430            1822           276            43725          1.1721526e-12
       114   185.803            47099   444            434            1868           284            44069          1.1854638e-12
       115   188.96049          47533   446            436            1912           287            44452          1.1984033e-12
       116   192.20593          47937   447            439            1945           297            44809          1.2107912e-12
       117   195.54353          48337   448            440            1984           307            45158          1.2235936e-12
       118   198.87836          48747   449            445            2018           315            45520          1.236986e-12 
       119   202.27204          49176   452            446            2067           322            45889          1.2501722e-12
       120   205.85236          49578   454            451            2100           328            46245          1.2628844e-12
       121   209.34697          50006   454            455            2145           335            46617          1.2761015e-12
       122   212.88385          50448   456            456            2180           350            47006          1.2894631e-12
       123   216.42613          50823   458            458            2223           360            47324          1.3019671e-12
       124   220.01877          51266   459            465            2254           369            47719          1.3146948e-12
       125   223.63748          51684   461            469            2296           383            48075          1.3272502e-12
       126   227.34536          52099   462            470            2337           396            48434          1.3393992e-12
       127   231.11207          52532   464            472            2361           411            48824          1.3513256e-12
       128   234.93207          52958   466            474            2411           416            49191          1.3627402e-12
       129   238.8442           53391   467            474            2451           428            49571          1.3732361e-12
       130   242.98885          53819   468            477            2476           447            49951          1.3836831e-12
       131   247.09753          54248   470            478            2505           465            50330          1.3942425e-12
       132   251.22983          54680   472            480            2550           480            50698          1.4056303e-12
       133   255.43756          55139   474            480            2594           494            51097          1.4178927e-12
       134   259.73853          55577   475            480            2639           509            51474          1.4305069e-12
       135   264.08205          56071   478            482            2697           524            51890          1.4435318e-12
       136   268.48465          56547   479            484            2735           543            52306          1.4564407e-12
       137   272.92482          57001   479            484            2774           562            52702          1.4694335e-12
       138   277.47275          57488   479            486            2809           591            53123          1.4823392e-12
       139   282.04094          57963   479            488            2844           608            53544          1.4957638e-12
       140   286.8899           58458   479            488            2890           632            53969          1.5089813e-12
       141   291.65662          58965   479            488            2949           652            54397          1.5227321e-12
       142   296.53074          59445   479            489            2995           677            54805          1.5371428e-12
       143   301.48264          59942   479            489            3044           694            55236          1.5524574e-12
       144   306.50744          60453   479            489            3104           710            55671          1.5682848e-12
       145   311.61838          60931   479            489            3160           727            56076          1.5852452e-12
       146   316.79034          61450   479            489            3234           749            56499          1.603095e-12 
       147   321.99678          61928   480            489            3287           770            56902          1.6217768e-12
       148   327.26478          62470   481            489            3363           788            57349          1.64037e-12  
       149   332.5596           62942   482            490            3436           804            57730          1.6585745e-12
       150   338.13315          63454   482            490            3489           821            58172          1.6764027e-12
       151   343.62268          63947   482            490            3561           836            58578          1.693933e-12 
       152   349.35679          64488   482            490            3625           854            59037          1.7120059e-12
       153   355.1311           64961   482            490            3692           873            59424          1.7307563e-12
       154   360.99238          65513   482            490            3767           895            59879          1.7502941e-12
       155   366.94864          66022   482            491            3842           915            60292          1.7715079e-12
       156   373.00136          66548   482            492            3916           937            60721          1.7940653e-12
       157   379.18292          67075   482            492            3996           964            61141          1.8183726e-12
       158   385.42154          67589   481            492            4077           991            61548          1.8438224e-12
       159   391.75115          68120   481            492            4167           1010           61970          1.8699236e-12
       160   398.32546          68625   481            492            4252           1032           62368          1.8959378e-12
       161   404.82758          69159   481            492            4345           1043           62798          1.9217208e-12
       162   411.50172          69656   481            492            4441           1064           63178          1.9476938e-12
       163   418.25001          70204   479            492            4523           1095           63615          1.974461e-12 
       164   425.09486          70693   479            492            4626           1110           63986          2.0013728e-12
       165   432.04001          71241   479            492            4721           1139           64410          2.0297856e-12
       166   439.11126          71754   478            492            4811           1168           64805          2.0593246e-12
       167   446.28853          72294   477            492            4907           1204           65214          2.0900112e-12
       168   453.57657          72812   477            491            5005           1243           65596          2.1215586e-12
       169   460.98801          73323   478            490            5088           1274           65993          2.1532922e-12
       170   468.68628          73826   478            490            5172           1317           66369          2.1850188e-12
       171   476.33303          74354   478            489            5263           1358           66766          2.2165625e-12
       172   484.06872          74856   478            488            5334           1410           67146          2.2488594e-12
       173   491.92766          75387   478            488            5436           1454           67531          2.2823078e-12
       174   499.9113           75929   478            489            5543           1488           67931          2.3164954e-12
       175   508.04426          76439   477            489            5655           1521           68297          2.352783e-12 
       176   516.24645          76955   477            489            5761           1572           68656          2.3908718e-12
       177   524.57582          77510   477            489            5858           1629           69057          2.430897e-12 
       178   533.01062          77995   477            488            5956           1679           69395          2.4724117e-12
       179   541.56382          78548   477            488            6099           1717           69767          2.5142828e-12
       180   550.42223          79073   476            488            6214           1760           70135          2.5567789e-12
       181   559.2018           79595   474            488            6347           1802           70484          2.5995761e-12
       182   568.14423          80128   474            488            6471           1846           70849          2.6426999e-12
       183   577.27076          80660   474            488            6603           1886           71209          2.6872412e-12
       184   586.45173          81211   474            487            6747           1929           71574          2.7341625e-12
       185   595.80002          81768   472            487            6914           1973           71922          2.7833924e-12
       186   605.20674          82299   470            487            7062           2016           72264          2.834326e-12 
       187   614.75707          82838   470            487            7213           2066           72602          2.8868898e-12
       188   624.42154          83392   469            487            7376           2109           72951          2.9403367e-12
       189   634.18491          83956   469            486            7558           2156           73287          2.9940851e-12
       190   644.29598          84537   469            484            7744           2198           73642          3.048469e-12 
       191   654.45961          85050   468            484            7907           2236           73955          3.106094e-12 
       192   664.6815           85621   467            484            8117           2270           74283          3.1653877e-12
       193   675.09132          86202   466            485            8306           2312           74633          3.2299476e-12
       194   685.66667          86793   466            485            8547           2353           74942          3.2982481e-12
       195   696.32636          87377   466            484            8756           2399           75272          3.3701844e-12
       196   707.18428          88005   466            483            9006           2450           75600          3.4441219e-12
       197   718.1724           88618   466            483            9242           2492           75935          3.5201013e-12
       198   729.31702          89217   465            482            9497           2548           76225          3.5987306e-12
       199   740.61338          89825   463            480            9748           2594           76540          3.6838231e-12
       200   752.28779          90495   462            479            10022          2657           76875          3.777371e-12 
       201   763.92744          91152   459            479            10338          2714           77162          3.8793654e-12
       202   775.85484          91808   458            479            10641          2764           77466          3.9904393e-12
       203   787.90955          92602   455            479            11069          2809           77790          4.1094655e-12
       204   800.20379          93303   453            478            11417          2870           78085          4.2342339e-12
       205   812.70314          94027   452            476            11770          2935           78394          4.3664257e-12
       206   825.42305          94827   451            476            12187          2996           78717          4.5006005e-12
       207   838.34845          95612   450            476            12609          3072           79005          4.6441227e-12
       208   851.59825          96375   449            476            13002          3143           79305          4.7758421e-12
       209   864.93935          97159   447            476            13420          3211           79605          4.912398e-12 
       210   878.65353          97920   445            476            13833          3267           79899          5.0485104e-12
       211   892.34408          98718   441            476            14266          3331           80204          5.1937828e-12
       212   906.15553          99553   439            475            14750          3402           80487          5.3464956e-12
       213   920.00653         100361   437            474            15208          3479           80763          5.5011493e-12
       214   933.88196         101182   437            472            15640          3560           81073          5.6465254e-12
       215   947.86428         102038   434            471            16137          3642           81354          5.801609e-12 
       216   961.91679         102807   433            471            16543          3723           81637          5.9503601e-12
       217   976.04132         103596   431            470            16975          3813           81907          6.0968471e-12
       218   990.23395         104434   430            469            17456          3894           82185          6.2514135e-12
       219   1004.5087         105360   429            469            18037          3955           82470          6.4313532e-12
       220   1019.0476         106223   427            468            18564          4046           82718          6.6208441e-12
       221   1033.4062         107109   424            466            19095          4160           82964          6.8027295e-12
       222   1047.9141         108033   422            464            19650          4256           83241          6.9783982e-12
       223   1062.4145         108912   421            463            20215          4349           83464          7.1716947e-12
       224   1077.0482         109784   417            459            20759          4454           83695          7.3451306e-12
       225   1091.7431         110786   416            455            21410          4552           83953          7.5358177e-12
       226   1106.4803         111757   415            453            22015          4691           84183          7.7428422e-12
       227   1121.2717         112649   413            451            22599          4821           84365          7.9579023e-12
       228   1136.1405         113607   411            447            23238          4941           84570          8.1653836e-12
       229   1151.0795         114649   407            445            23953          5051           84793          8.3837382e-12
       230   1166.3521         115623   401            444            24640          5165           84973          8.6104968e-12
       231   1181.6372         116562   397            443            25283          5302           85137          8.7887875e-12
       232   1196.8235         117514   394            439            25945          5426           85310          9.0053867e-12
       233   1212.0952         118473   391            435            26614          5576           85457          9.2212993e-12
       234   1227.3979         119479   386            431            27299          5734           85629          9.4372512e-12
       235   1242.7316         120382   380            427            27933          5872           85770          9.625895e-12 
       236   1258.1088         121325   377            419            28592          6036           85901          9.8323747e-12
       237   1273.5601         122287   375            415            29291          6182           86024          1.0063125e-11
       238   1289.0568         123247   369            412            29979          6351           86136          1.0247682e-11
       239   1304.6451         124214   367            405            30664          6529           86249          1.0453663e-11
       240   1320.5628         125079   365            400            31191          6777           86346          1.064866e-11 
       241   1336.2352         125944   361            393            31708          7036           86446          1.0823853e-11
       242   1351.9847         126799   356            389            32208          7305           86541          1.0961878e-11
       243   1367.7712         127696   350            387            32739          7584           86636          1.1115095e-11
       244   1383.5996         128504   342            376            33154          7920           86712          1.1281729e-11
       245   1399.5334         129287   338            373            33569          8228           86779          1.1411496e-11
       246   1415.5154         129995   332            362            33886          8560           86855          1.1522054e-11
       247   1431.5326         130695   327            359            34224          8870           86915          1.1605541e-11
       248   1447.5774         131385   320            354            34529          9214           86968          1.1692653e-11
       249   1463.718          132087   311            348            34875          9518           87035          1.1792543e-11
       250   1480.2111         132761   298            343            35229          9802           87089          1.1868104e-11
       251   1496.4406         133365   295            338            35492          10089          87151          1.1940406e-11
       252   1512.7004         134010   288            328            35822          10367          87205          1.1998535e-11
       253   1529.008          134688   278            321            36204          10623          87262          1.2072228e-11
       254   1545.4054         135268   269            315            36538          10835          87311          1.2106543e-11
       255   1561.8416         135826   262            311            36840          11063          87350          1.2139542e-11
       256   1578.3365         136285   255            307            37100          11235          87388          1.2174673e-11
       257   1594.891          136866   242            300            37478          11418          87428          1.2196947e-11
       258   1611.5386         137413   235            286            37807          11622          87463          1.2229681e-11
       259   1628.2369         138006   225            275            38184          11817          87505          1.2270971e-11
       260   1645.2959         138550   215            263            38496          12029          87547          1.2290573e-11
       261   1662.0749         138927   208            250            38640          12247          87582          1.2282206e-11
       262   1678.9258         139514   199            244            38973          12475          87623          1.2312751e-11
       263   1695.7927         140032   199            234            39240          12695          87664          1.2321111e-11
       264   1712.7539         140473   195            225            39374          12981          87698          1.23086e-11  
       265   1729.7732         140883   184            217            39466          13278          87738          1.2282193e-11
       266   1746.8326         141379   176            209            39588          13630          87776          1.2305904e-11
       267   1763.951          141837   166            202            39677          13976          87816          1.2283032e-11
       268   1781.0776         142255   157            192            39733          14333          87840          1.2276875e-11
       269   1798.2521         142700   150            181            39784          14710          87875          1.2283246e-11
       270   1815.8118         143119   138            170            39800          15105          87906          1.2286294e-11
       271   1833.1783         143549   132            161            39834          15477          87945          1.2265398e-11
       272   1850.5513         143996   127            154            39933          15793          87989          1.2253866e-11
       273   1867.9413         144427   120            142            39979          16163          88023          1.2243688e-11
       274   1885.329          144801   115            135            39988          16508          88055          1.2237357e-11
       275   1902.8377         145262   110            130            40095          16830          88097          1.223749e-11 
       276   1920.3352         145611   104            120            40093          17161          88133          1.2232183e-11
       277   1937.8211         146052   101            106            40204          17471          88170          1.2226559e-11
       278   1955.3994         146562   99             100            40420          17732          88211          1.2234205e-11
       279   1973.0756         146942   97             92             40483          18027          88243          1.2226033e-11
       280   1991.1068         147299   95             85             40512          18331          88276          1.2205646e-11
       281   2008.9045         147714   90             82             40590          18644          88308          1.2197212e-11
       282   2026.9662         148173   83             78             40719          18944          88349          1.2189475e-11
       283   2044.8526         148556   77             75             40797          19224          88383          1.2184041e-11
       284   2062.7817         148906   73             69             40800          19544          88420          1.2160492e-11
       285   2080.765          149260   71             65             40828          19841          88455          1.2160735e-11
       286   2098.9928         149693   67             62             40901          20180          88483          1.2167569e-11
       287   2117.1801         150135   63             55             40955          20539          88523          1.2165235e-11
       288   2135.3071         150551   58             54             40978          20900          88561          1.2174709e-11
       289   2153.5361         150884   56             50             40949          21244          88585          1.2153638e-11
       290   2172.1232         151244   55             46             40914          21611          88618          1.2171893e-11
       291   2190.4321         151673   53             43             40927          21995          88655          1.2173035e-11
       292   2208.8236         152072   52             40             40920          22382          88678          1.2174245e-11
       293   2227.2521         152431   50             39             40879          22746          88717          1.2154861e-11
       294   2245.6977         152804   44             39             40833          23143          88745          1.2135953e-11
       295   2264.2294         153211   43             38             40765          23586          88779          1.2159964e-11
       296   2282.8166         153524   42             37             40651          23987          88807          1.2127106e-11
       297   2301.5168         153930   42             32             40608          24411          88837          1.2141104e-11
       298   2320.2256         154256   39             32             40482          24841          88862          1.2146407e-11
       299   2338.996          154624   38             31             40372          25290          88893          1.2145235e-11
       300   2358.136          155022   36             31             40277          25753          88925          1.215876e-11 
       301   2377.0284         155341   35             28             40081          26245          88952          1.2134715e-11
       302   2395.9841         155720   34             28             39927          26752          88979          1.2141534e-11
       303   2415.0045         156038   34             28             39741          27228          89007          1.212771e-11 
       304   2434.0295         156405   33             28             39622          27686          89036          1.2138784e-11
       305   2453.1602         156763   31             27             39452          28190          89063          1.2140623e-11
       306   2472.3118         157110   30             27             39244          28716          89093          1.2166267e-11
       307   2491.5097         157548   30             25             39147          29229          89117          1.2170052e-11
       308   2510.8284         157851   28             24             38946          29709          89144          1.2147496e-11
       309   2530.119          158177   27             24             38795          30164          89167          1.2171789e-11
       310   2549.8446         158570   27             23             38695          30627          89198          1.2183656e-11
       311   2569.2954         158873   26             23             38538          31067          89219          1.2177045e-11
       312   2588.8548         159263   25             22             38454          31517          89245          1.2196366e-11
       313   2608.3489         159668   25             22             38347          32007          89267          1.2217122e-11
       314   2627.886          160046   25             22             38234          32469          89296          1.224047e-11 
       315   2647.4896         160301   25             22             37985          32954          89315          1.2224256e-11
       316   2667.1515         160634   25             22             37805          33438          89344          1.2222367e-11
       317   2686.7118         160995   25             22             37668          33917          89363          1.2241644e-11
       318   2706.2988         161320   25             22             37532          34344          89397          1.2251271e-11
       319   2725.9437         161697   25             22             37468          34767          89415          1.2264975e-11
       320   2746.1177         162113   25             22             37414          35205          89447          1.2276009e-11
Loop time of 2746.12 on 16 procs for 320 steps with 162113 atoms

97.7% CPU use with 16 MPI tasks x 1 OpenMP threads

MPI task timing breakdown:
Section |  min time  |  avg time  |  max time  |%varavg| %total
---------------------------------------------------------------
Pair    | 650.39     | 731.88     | 936.16     | 265.4 | 26.65
Neigh   | 606.11     | 695.1      | 1002.3     | 369.9 | 25.31
Comm    | 228.64     | 258.86     | 307.29     | 148.7 |  9.43
Output  | 48.004     | 48.005     | 48.006     |   0.0 |  1.75
Modify  | 464.14     | 1000.3     | 1177.7     | 567.8 | 36.43
Other   |            | 11.99      |            |       |  0.44

Nlocal:        10132.1 ave       16137 max        8771 min
Histogram: 8 4 0 2 1 0 0 0 0 1
Nghost:        7740.81 ave        9726 max        6862 min
Histogram: 3 6 1 1 1 1 1 1 0 1
Neighs:         102593 ave      119819 max       92487 min
Histogram: 2 2 3 4 2 1 0 0 1 1

Total # of neighbors = 1641494
Ave neighs/atom = 10.125616
Neighbor list builds = 28122
Dangerous builds = 27802

Total wall time: 0:46:17
