LAMMPS (23 Jun 2022 - Update 4)
  using 1 OpenMP thread(s) per MPI task
package omp 0
using multi-threaded neighbor list subroutines
#-----------------------------------------------------------------------------#
#                NUFEB Simulation: Heterotrophic Biofilm Growth               #
#-----------------------------------------------------------------------------#


#-----------------------------System Settings---------------------------------#

units si                                    # using si units (m, s, kg)
atom_style      coccus                      # using nufeb coccus atom style
atom_modify     map array sort 10 0         # map array - find atoms using indices
		                            # sort every 10

boundary        pp pp ff                    # periodic boundaries in x and y
                                            # fixed boundary in z

newton          off                         # forces between local and ghost
                                            # atoms are computed in each
					     # processor without communication

processors      * * 1                       # processor grid

comm_modify     vel yes                     # communicate velocities for ghost atoms

read_data       atom_ch.in	             # read atom.in file which defines domain size
Reading data file ...
  orthogonal box = (0 0 0) to (6e-05 6e-05 6e-05)
  4 by 4 by 1 MPI processor grid
  reading atoms ...
  150 atoms
  read_data CPU = 0.019 seconds
                                            # and initial atoms


#--------------------Microbes and Functional Groups-------------------------#

group           CROSS1   type 1               # assign type 1,2 atoms to CROSS group
50 atoms in group CROSS1
group           CROSS2   type 2
50 atoms in group CROSS2
group		CHEATER  type 3
50 atoms in group CHEATER
group           dead     type 4
0 atoms in group dead
group		EPS	 type 5
0 atoms in group EPS

neighbor        5e-7 bin                   # setting neighbour skin distance and style

neigh_modify    check yes                  # rebuild neighbour list if any atom
                                           # had moved more than half the skin distance


#--------------------------Mesh Grid and Substrates--------------------------#

# defining grid sytle, substrate names, and grid size
grid_style      nufeb/chemostat 3 sub metab1 metab2 5e-6

# set diffusion boundary conditions and initial concentrations (liquid:kg/m3)
grid_modify     set sub      pp pp nd  1.8e-4
No /omp style for force computation currently active
grid_modify     set metab1   pp pp nd  1e-4
No /omp style for force computation currently active
grid_modify     set metab2   pp pp nd  1e-4
No /omp style for force computation currently active


#--------------------------Biological Processes-------------------------------#

# heterotrophs growth
fix growth_cross1 CROSS1 nufeb/growth/cross1 sub 3.5e-5 metab2 4e-3 metab1 growth 0.009 yield 0.6 decay 2.6e-6 metab1_exp 20 epsyield 0.12 epsdens 30

fix growth_cross2 CROSS2 nufeb/growth/cross2 sub 3.5e-5 metab1 4e-3 metab2 growth 0.009 yield 0.6 decay 2.6e-6 metab2_exp 20 epsyield 0.12 epsdens 30

fix growth_cheater CHEATER nufeb/growth/cheater sub 3.5e-5 metab1 1e-3 metab2 1e-3 growth 0.009 yield 0.6 decay 2.6e-6

# heterotrophs division, division diameter: 1.36e-6
fix div1 CROSS1 nufeb/division/coccus 1.36e-6 203
fix div2 CROSS2 nufeb/division/coccus 1.36e-6 506
fix div3 CHEATER nufeb/division/coccus 1.36e-6 1009

fix death1 CROSS1 nufeb/death/diameter dead 5.43e-7
fix death2 CROSS2 nufeb/death/diameter dead 5.43e-7
fix death3 CHEATER nufeb/death/diameter dead 5.43e-7

# EPS secretion from heterotrophs
fix eps1 CROSS1 nufeb/eps_secretion 5 EPS 1.1 30 1712
fix eps2 CROSS2 nufeb/eps_secretion 5 EPS 1.1 30 2615

#---------------------------Physical Processes--------------------------------#

pair_style  gran/hooke/history 1e-4 NULL 1e-5 NULL 0.0 0    # pairwise interaction
pair_coeff  * *                                             # between atoms

# pairwise interaction between z-wall and atoms
fix wall all wall/gran hooke/history 1e-3 NULL 1e-4 NULL 0 0 zplane 0.0 1e-04

fix vis all viscous 1e-5                                    # viscous damping force

fix grav all gravity 9.81 vector 0.0 0.0 -1.0

fix nve all nve/limit 1e-7                                  # NVE integration with
                                                            # maximum distance limit


#---------------------------Post-Physical Processes---------------------------#

fix coeff_sub all nufeb/diffusion_coeff sub ratio 0.8       # defining diffusion coeff in the biofilm
fix coeff_metab1 all nufeb/diffusion_coeff metab1 ratio 0.8    # region is 80% of the value in liquid
fix coeff_metab2 all nufeb/diffusion_coeff metab2 ratio 0.8

#---------------------------Chemical Processes---------------------------------#

fix diff_sub all nufeb/diffusion_reaction sub 1e-9        # diffusion reaction for updating
fix diff_metab1 all nufeb/diffusion_reaction metab1 4e-9     # distribusion of substrate concentration
fix diff_metab2 all nufeb/diffusion_reaction metab2 4e-9

#--------------------------Computations and Outputs----------------------------#

variable mass equal "mass(all)"                             # total mass
variable ncross1 equal "count(CROSS1)"                      # total # of CROSS1
variable ncross2 equal "count(CROSS2)"                      # total # of CROSS2
variable ncheater equal "count(CHEATER)"
variable ndead equal "count(dead)"
variable neps equal "count(EPS)"

shell mkdir vtk_EPS_ch                                            # dump vtk files to /vtk folder
dump du1 all vtk 10 vtk_EPS_ch/dump*.vtu id type diameter         # require build NUFEB with vtk option
dump du2 all grid/vtk 10 vtk_EPS_ch/dump_%_*.vti con rea den gro

#dump du3 all movie 10 movie.avi type diameter view 80 60    # dump video
#dump_modify du3 acolor 1 blue acolor 2 lightgrey framerate 10


                                                            # dump hdf5 files to /hdf5 folder
#shell mkdir hdf5                                           # require build NUFEB with hdf5 option
#dump du3 all nufeb/hdf5 10 dump.h5 id type x y z vx vy vz fx fy fz radius conc reac

thermo_style custom step cpu atoms v_ncross1 v_ncross2 v_ncheater v_ndead v_neps v_mass     # screen and log outputs
thermo 1
thermo_modify   lost ignore

#-----------------------------------Run----------------------------------------#

# issue run command, define timesteps for physical (pairdt) and chemical (diffdt) processes
run_style nufeb diffdt 1e-4 difftol 1e-6 pairdt 1e-2 pairtol 1 pairmax 1000 diffmax 5000

timestep 12000                                               # define biological timesteps (1000s)

run 320                                                    # growing biofilm for 900x1000s
Generated 0 of 6 mixed pair_coeff terms from geometric mixing rule
Last active /omp style is pair_style gran/hooke/history/omp
Neighbor list info ...
  update every 1 steps, delay 10 steps, check yes
  max neighbors/atom: 2000, page size: 100000
  master list distance cutoff = 2.49e-06
  ghost atom cutoff = 2.49e-06
  binsize = 1.245e-06, bins = 49 49 49
  1 neighbor lists, perpetual/occasional/extra = 1 0 0
  (1) pair gran/hooke/history/omp, perpetual
      attributes: half, newton off, size, history, omp
      pair build: half/size/bin/newtoff/omp
      stencil: full/bin/3d
      bin: standard
Per MPI rank memory allocation (min/avg/max) = 11.02 | 11.02 | 11.02 Mbytes
   Step          CPU          Atoms      v_ncross1      v_ncross2      v_ncheater      v_ndead         v_neps         v_mass    
         0   0                    150   50             50             50             0              0              1.3295396e-13
         1   0.38260718           432   90             85             86             0              171            1.7285747e-13
         2   0.76085382           794   120            124            138            0              412            1.9580778e-13
         3   1.0821305           1128   129            147            183            0              669            2.1509731e-13
         4   1.3876461           1447   136            156            207            0              948            2.3307108e-13
         5   1.5938495           1756   141            162            220            0              1233           2.5065592e-13
         6   1.7665176           2083   149            169            235            0              1530           2.6802987e-13
         7   1.9285605           2421   155            174            256            0              1836           2.8523008e-13
         8   2.0879997           2769   164            182            276            0              2147           3.0168437e-13
         9   2.2769046           3131   168            191            294            0              2478           3.1821115e-13
        10   2.4364793           3504   176            199            319            0              2810           3.3476362e-13
        11   2.5778024           3883   180            205            340            0              3158           3.508834e-13 
        12   2.6920602           4266   188            213            356            0              3509           3.6659832e-13
        13   2.8218558           4664   194            222            370            0              3878           3.8213021e-13
        14   2.9342455           5058   197            225            399            0              4237           3.974169e-13 
        15   3.0679722           5437   201            229            414            0              4593           4.1231682e-13
        16   3.1915846           5836   203            233            436            0              4964           4.269328e-13 
        17   3.3013855           6232   211            236            459            0              5326           4.4101392e-13
        18   3.411002            6611   216            240            476            0              5679           4.5459007e-13
        19   3.5375267           7019   221            247            490            0              6061           4.6775881e-13
        20   3.6912138           7410   227            250            516            0              6417           4.806377e-13 
        21   3.8427774           7801   231            254            528            0              6788           4.9317125e-13
        22   3.9320147           8199   237            258            545            0              7159           5.0538528e-13
        23   4.0287462           8592   242            258            560            0              7532           5.1727144e-13
        24   4.140344            8979   244            261            576            0              7898           5.2875727e-13
        25   4.2252226           9383   251            264            592            0              8276           5.3974916e-13
        26   4.3515477           9768   252            269            613            0              8634           5.5026883e-13
        27   4.4438091          10167   259            271            623            0              9014           5.6040953e-13
        28   4.552207           10564   264            278            639            0              9383           5.7022539e-13
        29   4.6571246          10962   268            282            654            0              9758           5.7943672e-13
        30   4.8257468          11377   270            289            665            0              10153          5.8857196e-13
        31   4.96275            11771   274            294            675            0              10528          5.9717681e-13
        32   5.1014344          12184   278            296            690            0              10920          6.0539986e-13
        33   5.2397652          12586   280            298            701            0              11307          6.1333789e-13
        34   5.3679743          12980   281            300            716            0              11683          6.2081463e-13
        35   5.5233326          13369   288            301            727            0              12053          6.2803232e-13
        36   5.7135464          13773   290            304            737            0              12442          6.3532276e-13
        37   5.9254978          14169   291            307            747            0              12824          6.4214532e-13
        38   6.2182642          14577   296            310            756            0              13215          6.49303e-13  
        39   6.5947779          14988   300            311            774            0              13603          6.5639115e-13
        40   51.146272          15384   300            315            785            0              13984          6.6339186e-13
        41   51.498857          15782   300            315            798            0              14369          6.6989082e-13
        42   52.376162          16180   302            319            812            0              14747          6.7713497e-13
        43   52.802915          16587   304            320            820            0              15143          6.8409513e-13
        44   53.506228          16968   306            321            833            0              15508          6.9122486e-13
        45   54.409983          17394   313            323            845            0              15913          6.9841645e-13
        46   55.347285          17798   315            324            858            0              16301          7.0532097e-13
        47   56.266403          18202   317            325            874            0              16686          7.1238356e-13
        48   57.223095          18611   321            326            891            0              17073          7.1913579e-13
        49   58.180119          19028   325            326            906            0              17471          7.2585374e-13
        50   59.222349          19428   327            328            921            0              17852          7.3233814e-13
        51   60.214116          19845   327            331            934            0              18253          7.3876341e-13
        52   61.227003          20237   327            333            946            0              18631          7.4494496e-13
        53   62.254368          20649   329            333            959            0              19028          7.5091627e-13
        54   63.300587          21054   330            335            973            1              19415          7.5677873e-13
        55   64.369497          21466   332            336            986            1              19811          7.6251757e-13
        56   65.485335          21859   332            337            1002           2              20186          7.6804481e-13
        57   66.636373          22279   336            340            1019           2              20582          7.7380732e-13
        58   67.810126          22669   337            342            1029           2              20959          7.794399e-13 
        59   69.048673          23094   339            343            1048           2              21362          7.8502327e-13
        60   70.419356          23508   341            346            1055           3              21763          7.9095179e-13
        61   71.752015          23915   344            348            1076           3              22144          7.9740645e-13
        62   73.132238          24338   346            353            1098           5              22536          8.0447214e-13
        63   74.510693          24738   348            353            1111           7              22919          8.1201772e-13
        64   75.932814          25162   349            356            1137           7              23313          8.2000652e-13
        65   77.346182          25571   349            356            1153           9              23704          8.2835287e-13
        66   78.780443          25990   350            356            1176           13             24095          8.3687923e-13
        67   80.191427          26385   352            358            1192           16             24467          8.4540691e-13
        68   81.627395          26803   354            358            1210           24             24857          8.5381707e-13
        69   83.066452          27226   357            358            1229           30             25252          8.6220641e-13
        70   84.599615          27627   357            358            1258           32             25622          8.7032774e-13
        71   86.130038          28054   357            359            1267           37             26034          8.7819744e-13
        72   87.678525          28465   358            361            1296           41             26409          8.859176e-13 
        73   89.291158          28888   358            362            1311           47             26810          8.9374973e-13
        74   90.969935          29290   360            365            1326           51             27188          9.0179886e-13
        75   92.733535          29719   363            366            1353           56             27581          9.1058509e-13
        76   94.536457          30139   363            367            1383           60             27966          9.2025493e-13
        77   96.339115          30569   363            369            1411           68             28358          9.3079612e-13
        78   98.164349          30983   363            371            1435           74             28740          9.4212577e-13
        79   99.982947          31393   364            371            1467           85             29106          9.5368054e-13
        80   101.90469          31813   366            372            1493           90             29492          9.6562722e-13
        81   103.77442          32220   366            374            1514           99             29867          9.7751185e-13
        82   105.66167          32647   368            375            1550           109            30245          9.895631e-13 
        83   107.55692          33072   368            376            1582           115            30631          1.0017521e-12
        84   109.55774          33504   368            377            1615           124            31020          1.0139824e-12
        85   111.55218          33913   369            381            1642           137            31384          1.0268578e-12
        86   113.67787          34344   369            381            1672           150            31772          1.0399202e-12
        87   115.86725          34770   370            383            1712           159            32146          1.0544546e-12
        88   118.05069          35199   370            383            1762           170            32514          1.070997e-12 
        89   120.28087          35619   370            383            1806           178            32882          1.0882627e-12
        90   122.64258          36057   370            383            1871           185            33248          1.1066916e-12
        91   124.9525           36480   373            383            1928           195            33601          1.1262789e-12
        92   127.24878          36897   373            383            1983           208            33950          1.1469997e-12
        93   129.56006          37330   373            383            2057           214            34303          1.1683971e-12
        94   131.87415          37737   373            383            2117           225            34639          1.1898307e-12
        95   134.20727          38166   373            383            2188           230            34992          1.2114153e-12
        96   136.5959           38589   373            384            2256           240            35336          1.2332146e-12
        97   139.03064          39004   373            384            2334           248            35665          1.2551167e-12
        98   141.48128          39416   373            384            2401           253            36005          1.2772824e-12
        99   144.02964          39841   373            384            2485           261            36338          1.2993051e-12
       100   146.74301          40254   374            384            2572           266            36658          1.3220994e-12
       101   149.38396          40661   374            384            2637           273            36993          1.3457034e-12
       102   152.07388          41069   374            384            2709           282            37320          1.36963e-12  
       103   154.79598          41476   375            384            2807           286            37624          1.3940705e-12
       104   157.55699          41901   375            385            2894           296            37951          1.4192069e-12
       105   160.34289          42292   375            385            2960           306            38266          1.4445525e-12
       106   163.13318          42705   375            386            3047           318            38579          1.4697872e-12
       107   165.95879          43103   375            386            3127           325            38890          1.4945939e-12
       108   168.78977          43521   376            386            3217           334            39208          1.5190432e-12
       109   171.68209          43915   376            388            3307           342            39502          1.5429351e-12
       110   174.80647          44332   376            388            3397           349            39822          1.5666665e-12
       111   177.79209          44726   376            388            3482           357            40123          1.5898223e-12
       112   180.86548          45124   376            388            3547           374            40439          1.612838e-12 
       113   184.00423          45527   376            389            3631           389            40742          1.6361075e-12
       114   187.19256          45915   376            389            3721           397            41032          1.6597733e-12
       115   190.44253          46317   376            389            3798           401            41353          1.6839295e-12
       116   193.74687          46699   376            390            3878           417            41638          1.7081584e-12
       117   197.08722          47089   376            390            3947           434            41942          1.7333323e-12
       118   200.49236          47512   376            391            4049           448            42248          1.75894e-12  
       119   203.94152          47904   376            392            4138           464            42534          1.7849602e-12
       120   207.55416          48322   376            392            4239           480            42835          1.8112237e-12
       121   211.09417          48713   376            392            4326           493            43126          1.8374957e-12
       122   214.66538          49123   376            393            4411           506            43437          1.8640877e-12
       123   218.28571          49505   376            394            4488           528            43719          1.8903876e-12
       124   221.96029          49914   376            395            4588           547            44008          1.917031e-12 
       125   225.69707          50334   376            396            4686           565            44311          1.9435347e-12
       126   229.47847          50752   376            396            4781           591            44608          1.9705977e-12
       127   233.32348          51156   376            396            4868           611            44905          1.9978768e-12
       128   237.21985          51565   376            396            4984           621            45188          2.0255023e-12
       129   241.18722          52006   376            396            5085           641            45508          2.0530617e-12
       130   245.34884          52375   376            396            5173           664            45766          2.0815812e-12
       131   249.41286          52803   376            396            5261           702            46068          2.110605e-12 
       132   253.51861          53211   376            396            5353           727            46359          2.1402241e-12
       133   257.67185          53602   376            397            5431           776            46622          2.1705e-12   
       134   261.88343          54025   376            397            5507           821            46924          2.202011e-12 
       135   266.17766          54439   376            397            5605           864            47197          2.2340669e-12
       136   270.53063          54875   377            397            5730           898            47473          2.266458e-12 
       137   274.90748          55285   377            398            5806           947            47757          2.2989653e-12
       138   279.33535          55719   377            398            5916           992            48036          2.3317385e-12
       139   283.80068          56129   377            398            5984           1061           48309          2.3646792e-12
       140   288.86924          56581   378            398            6082           1121           48602          2.3977372e-12
       141   293.48422          56997   378            399            6182           1176           48862          2.4306376e-12
       142   298.1494           57428   378            399            6280           1234           49137          2.4639013e-12
       143   302.88484          57855   378            399            6364           1291           49423          2.4977822e-12
       144   307.68883          58257   378            399            6425           1376           49679          2.5328376e-12
       145   312.55978          58736   378            398            6539           1443           49978          2.5691855e-12
       146   317.49991          59155   377            398            6644           1495           50241          2.6071841e-12
       147   322.50328          59632   378            398            6789           1539           50528          2.6461042e-12
       148   327.56993          60060   378            399            6903           1598           50782          2.6852482e-12
       149   332.71962          60528   378            400            7044           1637           51069          2.7252925e-12
       150   338.07347          60991   378            400            7164           1699           51350          2.7661294e-12
       151   343.34573          61474   378            400            7321           1756           51619          2.807365e-12 
       152   348.67584          61917   378            400            7443           1801           51895          2.8483077e-12
       153   354.09856          62382   379            400            7585           1854           52164          2.8889784e-12
       154   359.58506          62839   380            401            7720           1914           52424          2.9293591e-12
       155   365.17759          63321   382            401            7843           1975           52720          2.9703248e-12
       156   370.83596          63755   382            401            7982           2022           52968          3.011385e-12 
       157   376.57065          64245   382            401            8129           2059           53274          3.0542177e-12
       158   382.35622          64717   382            401            8302           2097           53535          3.0985951e-12
       159   388.27216          65227   382            401            8486           2139           53819          3.1449e-12   
       160   394.42021          65717   382            401            8649           2182           54103          3.1934871e-12
       161   400.50117          66182   383            401            8819           2231           54348          3.2443489e-12
       162   406.6598           66701   383            401            8989           2274           54654          3.2956068e-12
       163   412.90517          67175   383            401            9141           2324           54926          3.3483268e-12
       164   419.234            67689   383            401            9350           2374           55181          3.4025874e-12
       165   425.63384          68201   381            400            9545           2418           55457          3.4576516e-12
       166   432.13592          68701   381            400            9699           2493           55728          3.5141005e-12
       167   438.715            69211   381            400            9922           2535           55973          3.571481e-12 
       168   445.38962          69741   382            400            10116          2574           56269          3.6312267e-12
       169   452.14802          70291   382            400            10367          2606           56536          3.6925429e-12
       170   459.16102          70815   382            400            10601          2644           56788          3.7563262e-12
       171   466.08508          71360   381            400            10833          2688           57058          3.824126e-12 
       172   473.11634          71917   381            400            11091          2721           57324          3.895506e-12 
       173   480.24506          72482   380            400            11361          2768           57573          3.9715714e-12
       174   487.45201          73095   380            400            11663          2804           57848          4.0527581e-12
       175   494.74712          73692   380            399            11960          2851           58102          4.1379058e-12
       176   502.16689          74301   380            398            12253          2913           58357          4.2268912e-12
       177   509.6975           74966   380            397            12587          2974           58628          4.3191004e-12
       178   517.32672          75574   381            397            12901          3026           58869          4.4193859e-12
       179   525.06564          76249   381            396            13266          3085           59121          4.5274397e-12
       180   533.11243          76958   381            396            13660          3140           59381          4.6443251e-12
       181   541.07253          77680   381            396            14085          3189           59629          4.7719648e-12
       182   549.18487          78418   381            396            14522          3242           59877          4.9090602e-12
       183   557.40967          79229   382            396            15013          3302           60136          5.0584327e-12
       184   565.81913          79997   381            395            15494          3362           60365          5.2170719e-12
       185   574.35146          80860   381            394            15993          3461           60631          5.3782193e-12
       186   583.02009          81703   380            393            16511          3540           60879          5.5493498e-12
       187   591.82902          82580   380            393            17028          3643           61136          5.7248007e-12
       188   600.83946          83452   379            393            17543          3753           61384          5.8961609e-12
       189   609.97194          84284   378            389            18032          3871           61614          6.0710114e-12
       190   619.45401          85270   378            386            18658          3991           61857          6.2642093e-12
       191   628.85474          86208   378            384            19214          4109           62123          6.4528685e-12
       192   638.38721          87059   376            382            19698          4250           62353          6.6265907e-12
       193   648.08212          87947   376            381            20198          4402           62590          6.8105171e-12
       194   657.89708          88890   375            381            20752          4550           62832          6.9809335e-12
       195   667.8448           89788   375            380            21252          4709           63072          7.1533779e-12
       196   677.88478          90654   375            376            21715          4892           63296          7.3371931e-12
       197   687.99219          91575   374            375            22237          5062           63527          7.5163254e-12
       198   698.19566          92564   372            375            22868          5205           63744          7.713385e-12 
       199   708.51863          93520   372            372            23465          5348           63963          7.8992052e-12
       200   719.14406          94479   371            368            24028          5543           64169          8.0913217e-12
       201   729.62355          95429   370            368            24610          5710           64371          8.2884967e-12
       202   740.13554          96378   369            367            25140          5912           64590          8.4598047e-12
       203   750.74494          97384   369            364            25748          6101           64802          8.6516815e-12
       204   761.45724          98268   368            363            26267          6292           64978          8.838089e-12 
       205   772.25427          99266   368            360            26865          6497           65176          9.0222119e-12
       206   783.14822         100234   368            357            27467          6694           65348          9.2142031e-12
       207   794.12122         101188   365            357            28067          6864           65535          9.3943944e-12
       208   805.12576         102212   361            353            28791          7025           65682          9.5904514e-12
       209   816.15948         103095   360            350            29332          7217           65836          9.7737433e-12
       210   827.46826         104042   360            342            29929          7415           65996          9.9537705e-12
       211   838.61437         105025   356            335            30594          7597           66143          1.0148959e-11
       212   849.83217         105928   354            331            31205          7758           66280          1.0325373e-11
       213   861.09063         106868   346            326            31850          7936           66410          1.0483299e-11
       214   872.39294         107769   346            324            32448          8133           66518          1.0645075e-11
       215   883.76095         108597   343            320            32960          8345           66629          1.0798589e-11
       216   895.15285         109438   340            309            33461          8598           66730          1.0955638e-11
       217   906.58998         110282   334            304            33952          8853           66839          1.1093085e-11
       218   918.09794         111182   324            298            34486          9152           66922          1.1230478e-11
       219   929.64909         111940   319            295            34889          9434           67003          1.1374955e-11
       220   941.48525         112693   314            293            35257          9742           67087          1.1487926e-11
       221   953.13494         113487   307            289            35664          10084          67143          1.1588639e-11
       222   964.8821          114199   302            284            35965          10431          67217          1.1686768e-11
       223   976.61998         114888   295            276            36259          10775          67283          1.1786318e-11
       224   988.41902         115544   289            267            36529          11126          67333          1.1863888e-11
       225   1000.242          116290   281            259            36885          11476          67389          1.1954058e-11
       226   1012.117          116923   274            253            37131          11821          67444          1.2004042e-11
       227   1024.0386         117513   261            240            37315          12213          67484          1.2055498e-11
       228   1035.9989         118112   254            233            37536          12560          67529          1.21133e-11  
       229   1047.9705         118716   248            225            37778          12901          67564          1.2154404e-11
       230   1060.2654         119378   242            217            38098          13228          67593          1.2234719e-11
       231   1072.3357         119937   235            208            38334          13532          67628          1.2239171e-11
       232   1084.4466         120377   228            205            38451          13831          67662          1.2261759e-11
       233   1096.4711         120908   223            199            38687          14102          67697          1.2289282e-11
       234   1108.5616         121552   218            190            39008          14398          67738          1.2317399e-11
       235   1120.6887         122054   208            187            39190          14691          67778          1.2330903e-11
       236   1132.8686         122508   202            179            39344          14967          67816          1.2321257e-11
       237   1145.0918         122972   187            172            39494          15280          67839          1.2331604e-11
       238   1157.3603         123418   179            167            39655          15548          67869          1.2343124e-11
       239   1169.6689         123918   171            157            39804          15879          67907          1.2343621e-11
       240   1182.3021         124415   159            150            39981          16194          67931          1.2354832e-11
       241   1194.7251         124806   153            140            40039          16520          67954          1.2325496e-11
       242   1207.2418         125320   143            133            40233          16826          67985          1.2336239e-11
       243   1219.7232         125661   134            122            40212          17176          68017          1.2326145e-11
       244   1232.2335         126113   128            115            40292          17541          68037          1.2328875e-11
       245   1244.767          126535   120            113            40350          17892          68060          1.2300817e-11
       246   1257.3213         126913   114            110            40333          18260          68096          1.2276816e-11
       247   1269.9249         127416   109            104            40480          18595          68128          1.2289411e-11
       248   1282.5585         127795   104            97             40499          18943          68152          1.2276561e-11
       249   1295.226          128264   100            92             40585          19299          68188          1.230045e-11 
       250   1308.2623         128728   97             88             40666          19662          68215          1.2301103e-11
       251   1321.0786         129048   93             86             40582          20045          68242          1.2268348e-11
       252   1333.9442         129490   92             82             40649          20397          68270          1.2273852e-11
       253   1346.8432         129897   85             77             40691          20748          68296          1.2259737e-11
       254   1359.7687         130213   83             75             40620          21111          68324          1.2226946e-11
       255   1372.7478         130606   81             72             40643          21461          68349          1.2222878e-11
       256   1385.7954         131082   76             66             40749          21810          68381          1.2233988e-11
       257   1398.9153         131424   72             61             40735          22143          68413          1.2206339e-11
       258   1412.049          131790   72             60             40723          22495          68440          1.2220696e-11
       259   1425.2266         132146   71             58             40710          22843          68464          1.218973e-11 
       260   1438.7524         132587   66             56             40766          23201          68498          1.2188381e-11
       261   1452.0063         133049   65             54             40853          23551          68526          1.2223319e-11
       262   1465.3464         133389   63             51             40793          23927          68555          1.220313e-11 
       263   1478.7114         133702   60             51             40709          24299          68583          1.2198679e-11
       264   1492.1536         134174   59             51             40795          24655          68614          1.2200637e-11
       265   1505.6146         134558   57             49             40779          25032          68641          1.2200093e-11
       266   1519.1032         134911   56             48             40671          25464          68672          1.2190168e-11
       267   1532.6906         135345   55             44             40690          25856          68700          1.2211895e-11
       268   1546.2881         135627   53             43             40558          26244          68729          1.2183815e-11
       269   1559.9265         136047   53             42             40557          26639          68756          1.2200349e-11
       270   1573.8989         136380   51             41             40438          27063          68787          1.2186178e-11
       271   1587.6213         136797   51             40             40379          27512          68815          1.2175356e-11
       272   1601.3842         137168   51             40             40302          27932          68843          1.2173834e-11
       273   1615.2857         137597   51             38             40300          28335          68873          1.2204294e-11
       274   1629.1877         137871   50             38             40103          28776          68904          1.2199018e-11
       275   1643.0933         138211   50             38             39988          29200          68935          1.2199253e-11
       276   1657.128          138657   49             34             39981          29637          68956          1.220461e-11 
       277   1671.1395         138965   49             31             39806          30093          68986          1.2189973e-11
       278   1685.2135         139295   47             31             39634          30564          69019          1.2193536e-11
       279   1699.3149         139673   44             31             39567          30987          69044          1.2207301e-11
       280   1713.785          140063   43             29             39435          31489          69067          1.2228669e-11
       281   1728.0001         140447   43             28             39289          31983          69104          1.2221188e-11
       282   1742.2618         140762   42             27             39108          32461          69124          1.2231727e-11
       283   1756.5378         141147   40             27             39001          32930          69149          1.2234137e-11
       284   1770.8744         141453   40             27             38817          33386          69183          1.2227197e-11
       285   1785.2124         141739   40             27             38585          33881          69206          1.223032e-11 
       286   1799.5811         142086   40             26             38405          34379          69236          1.221651e-11 
       287   1814.0357         142507   39             26             38344          34836          69262          1.2239892e-11
       288   1828.5061         142881   37             25             38192          35337          69290          1.2254688e-11
       289   1843.0737         143233   37             25             38069          35786          69316          1.2263362e-11
       290   1858.0559         143531   35             25             37852          36275          69344          1.226204e-11 
       291   1872.7753         143862   35             24             37703          36726          69374          1.2290222e-11
       292   1887.5522         144223   35             24             37581          37190          69393          1.2287671e-11
       293   1902.3516         144603   34             24             37503          37615          69427          1.229236e-11 
       294   1917.1995         144933   33             24             37362          38068          69446          1.2297042e-11
       295   1932.0811         145292   33             24             37261          38499          69475          1.2302226e-11
       296   1947.0109         145538   33             24             37061          38918          69502          1.229941e-11 
       297   1962.0027         145830   33             22             36940          39307          69528          1.2319189e-11
       298   1976.9958         146234   33             22             36916          39707          69556          1.2328875e-11
       299   1991.9855         146646   33             22             36930          40083          69578          1.2333883e-11
       300   2007.4477         146970   33             22             36822          40486          69607          1.2362405e-11
       301   2022.4248         147327   33             22             36777          40863          69632          1.237997e-11 
       302   2037.6051         147591   33             21             36640          41237          69660          1.2388627e-11
       303   2052.6762         147926   33             21             36585          41602          69685          1.2392034e-11
       304   2067.7745         148309   33             21             36579          41964          69712          1.2409948e-11
       305   2082.988          148687   33             21             36569          42331          69733          1.2418311e-11
       306   2098.236          148992   33             21             36479          42696          69763          1.2430563e-11
       307   2113.5224         149284   33             21             36415          43030          69785          1.2426848e-11
       308   2128.7997         149588   33             21             36354          43366          69814          1.2432667e-11
       309   2144.2375         149972   31             21             36347          43737          69836          1.246199e-11 
       310   2159.9723         150291   31             21             36293          44083          69863          1.2480161e-11
       311   2175.4087         150660   31             21             36274          44445          69889          1.2477534e-11
       312   2190.8749         150971   31             21             36215          44789          69915          1.2479844e-11
       313   2206.5213         151239   31             21             36135          45110          69942          1.2479732e-11
       314   2222.1932         151574   30             21             36093          45464          69966          1.2478109e-11
       315   2237.8246         151913   30             21             36057          45815          69990          1.2501635e-11
       316   2253.4523         152260   30             21             36088          46105          70016          1.2505788e-11
       317   2269.1467         152526   30             21             36010          46422          70043          1.2522702e-11
       318   2284.8546         152901   30             21             36068          46713          70069          1.2547706e-11
       319   2300.5815         153189   30             21             36005          47039          70094          1.255316e-11 
       320   2316.9015         153528   29             21             36001          47355          70122          1.2550433e-11
Loop time of 2316.9 on 16 procs for 320 steps with 153528 atoms

97.5% CPU use with 16 MPI tasks x 1 OpenMP threads

MPI task timing breakdown:
Section |  min time  |  avg time  |  max time  |%varavg| %total
---------------------------------------------------------------
Pair    | 562.51     | 656.44     | 788.07     | 297.1 | 28.33
Neigh   | 443.63     | 590.08     | 789.12     | 458.2 | 25.47
Comm    | 201.01     | 238.95     | 272.82     | 172.1 | 10.31
Output  | 50.638     | 50.638     | 50.639     |   0.0 |  2.19
Modify  | 416.98     | 769.16     | 1047.1     | 736.7 | 33.20
Other   |            | 11.63      |            |       |  0.50

Nlocal:         9595.5 ave       12931 max        7800 min
Histogram: 4 5 3 0 0 0 0 0 0 4
Nghost:           7457 ave        9881 max        6172 min
Histogram: 5 1 6 0 0 0 0 0 1 3
Neighs:        92863.8 ave      102376 max       81359 min
Histogram: 1 0 2 3 2 2 1 1 1 3

Total # of neighbors = 1485821
Ave neighs/atom = 9.6778503
Neighbor list builds = 28097
Dangerous builds = 27777

Total wall time: 0:39:07
