LAMMPS (23 Jun 2022 - Update 4)
  using 1 OpenMP thread(s) per MPI task
package omp 0
using multi-threaded neighbor list subroutines
#-----------------------------------------------------------------------------#
#                NUFEB Simulation: Heterotrophic Biofilm Growth               #
#-----------------------------------------------------------------------------#


#-----------------------------System Settings---------------------------------#

units si                                    # using si units (m, s, kg)
atom_style      coccus                      # using nufeb coccus atom style
atom_modify     map array sort 10 0         # map array - find atoms using indices
		                            # sort every 10

boundary        pp pp ff                    # periodic boundaries in x and y
                                            # fixed boundary in z

newton          off                         # forces between local and ghost
                                            # atoms are computed in each
					     # processor without communication

processors      * * 1                       # processor grid

comm_modify     vel yes                     # communicate velocities for ghost atoms

read_data       atom_ch.in	             # read atom.in file which defines domain size
Reading data file ...
  orthogonal box = (0 0 0) to (6e-05 6e-05 6e-05)
  4 by 4 by 1 MPI processor grid
  reading atoms ...
  150 atoms
  read_data CPU = 0.028 seconds
                                            # and initial atoms


#--------------------Microbes and Functional Groups-------------------------#

group           CROSS1   type 1               # assign type 1,2 atoms to CROSS group
50 atoms in group CROSS1
group           CROSS2   type 2
50 atoms in group CROSS2
group		CHEATER  type 3
50 atoms in group CHEATER
group           dead     type 4
0 atoms in group dead
group		EPS	 type 5
0 atoms in group EPS

neighbor        5e-7 bin                   # setting neighbour skin distance and style

neigh_modify    check yes                  # rebuild neighbour list if any atom
                                           # had moved more than half the skin distance


#--------------------------Mesh Grid and Substrates--------------------------#

# defining grid sytle, substrate names, and grid size
grid_style      nufeb/chemostat 3 sub metab1 metab2 5e-6

# set diffusion boundary conditions and initial concentrations (liquid:kg/m3)
grid_modify     set sub      pp pp nd  1.8e-4
No /omp style for force computation currently active
grid_modify     set metab1   pp pp nd  1e-4
No /omp style for force computation currently active
grid_modify     set metab2   pp pp nd  1e-4
No /omp style for force computation currently active


#--------------------------Biological Processes-------------------------------#

# heterotrophs growth
fix growth_cross1 CROSS1 nufeb/growth/cross1 sub 3.5e-5 metab2 4e-3 metab1 growth 0.009 yield 0.6 decay 2.6e-6 metab1_exp 20 epsyield 0.12 epsdens 30

fix growth_cross2 CROSS2 nufeb/growth/cross2 sub 3.5e-5 metab1 4e-3 metab2 growth 0.009 yield 0.6 decay 2.6e-6 metab2_exp 20 epsyield 0.12 epsdens 30

fix growth_cheater CHEATER nufeb/growth/cheater sub 3.5e-5 metab1 1e-3 metab2 1e-3 growth 0.009 yield 0.6 decay 2.6e-6

# heterotrophs division, division diameter: 1.36e-6
fix div1 CROSS1 nufeb/division/coccus 1.36e-6 247
fix div2 CROSS2 nufeb/division/coccus 1.36e-6 682
fix div3 CHEATER nufeb/division/coccus 1.36e-6 1405

fix death1 CROSS1 nufeb/death/diameter dead 5.43e-7
fix death2 CROSS2 nufeb/death/diameter dead 5.43e-7
fix death3 CHEATER nufeb/death/diameter dead 5.43e-7

# EPS secretion from heterotrophs
fix eps1 CROSS1 nufeb/eps_secretion 5 EPS 1.1 30 2416
fix eps2 CROSS2 nufeb/eps_secretion 5 EPS 1.1 30 3715

#---------------------------Physical Processes--------------------------------#

pair_style  gran/hooke/history 1e-4 NULL 1e-5 NULL 0.0 0    # pairwise interaction
pair_coeff  * *                                             # between atoms

# pairwise interaction between z-wall and atoms
fix wall all wall/gran hooke/history 1e-3 NULL 1e-4 NULL 0 0 zplane 0.0 1e-04

fix vis all viscous 1e-5                                    # viscous damping force

fix grav all gravity 9.81 vector 0.0 0.0 -1.0

fix nve all nve/limit 1e-7                                  # NVE integration with
                                                            # maximum distance limit


#---------------------------Post-Physical Processes---------------------------#

fix coeff_sub all nufeb/diffusion_coeff sub ratio 0.8       # defining diffusion coeff in the biofilm
fix coeff_metab1 all nufeb/diffusion_coeff metab1 ratio 0.8    # region is 80% of the value in liquid
fix coeff_metab2 all nufeb/diffusion_coeff metab2 ratio 0.8

#---------------------------Chemical Processes---------------------------------#

fix diff_sub all nufeb/diffusion_reaction sub 1e-9        # diffusion reaction for updating
fix diff_metab1 all nufeb/diffusion_reaction metab1 4e-9     # distribusion of substrate concentration
fix diff_metab2 all nufeb/diffusion_reaction metab2 4e-9

#--------------------------Computations and Outputs----------------------------#

variable mass equal "mass(all)"                             # total mass
variable ncross1 equal "count(CROSS1)"                      # total # of CROSS1
variable ncross2 equal "count(CROSS2)"                      # total # of CROSS2
variable ncheater equal "count(CHEATER)"
variable ndead equal "count(dead)"
variable neps equal "count(EPS)"

shell mkdir vtk_EPS_ch                                            # dump vtk files to /vtk folder
dump du1 all vtk 10 vtk_EPS_ch/dump*.vtu id type diameter         # require build NUFEB with vtk option
dump du2 all grid/vtk 10 vtk_EPS_ch/dump_%_*.vti con rea den gro

#dump du3 all movie 10 movie.avi type diameter view 80 60    # dump video
#dump_modify du3 acolor 1 blue acolor 2 lightgrey framerate 10


                                                            # dump hdf5 files to /hdf5 folder
#shell mkdir hdf5                                           # require build NUFEB with hdf5 option
#dump du3 all nufeb/hdf5 10 dump.h5 id type x y z vx vy vz fx fy fz radius conc reac

thermo_style custom step cpu atoms v_ncross1 v_ncross2 v_ncheater v_ndead v_neps v_mass     # screen and log outputs
thermo 1
thermo_modify   lost ignore

#-----------------------------------Run----------------------------------------#

# issue run command, define timesteps for physical (pairdt) and chemical (diffdt) processes
run_style nufeb diffdt 1e-4 difftol 1e-6 pairdt 1e-2 pairtol 1 pairmax 1000 diffmax 5000

timestep 12000                                               # define biological timesteps (1000s)

run 320                                                    # growing biofilm for 900x1000s
Generated 0 of 6 mixed pair_coeff terms from geometric mixing rule
Last active /omp style is pair_style gran/hooke/history/omp
Neighbor list info ...
  update every 1 steps, delay 10 steps, check yes
  max neighbors/atom: 2000, page size: 100000
  master list distance cutoff = 2.49e-06
  ghost atom cutoff = 2.49e-06
  binsize = 1.245e-06, bins = 49 49 49
  1 neighbor lists, perpetual/occasional/extra = 1 0 0
  (1) pair gran/hooke/history/omp, perpetual
      attributes: half, newton off, size, history, omp
      pair build: half/size/bin/newtoff/omp
      stencil: full/bin/3d
      bin: standard
Per MPI rank memory allocation (min/avg/max) = 11.02 | 11.02 | 11.02 Mbytes
   Step          CPU          Atoms      v_ncross1      v_ncross2      v_ncheater      v_ndead         v_neps         v_mass    
         0   0                    150   50             50             50             0              0              1.3295396e-13
         1   0.38380968           432   90             85             86             0              171            1.7274661e-13
         2   0.76786838           788   118            125            135            0              410            1.9594671e-13
         3   1.0887919           1123   129            144            180            0              670            2.1487545e-13
         4   1.3958605           1423   137            150            200            0              936            2.3265955e-13
         5   1.6136611           1748   142            162            223            0              1221           2.4996977e-13
         6   1.7911896           2059   146            166            236            0              1511           2.671747e-13 
         7   1.9531856           2402   151            177            255            0              1819           2.8417347e-13
         8   2.112055            2748   159            188            275            0              2126           3.0060087e-13
         9   2.2738295           3115   165            198            300            0              2452           3.1694497e-13
        10   2.4428097           3473   169            205            315            0              2784           3.329498e-13 
        11   2.5673658           3854   175            216            330            0              3133           3.4869147e-13
        12   2.6993713           4230   180            218            352            0              3480           3.6412047e-13
        13   2.8009902           4618   188            226            369            0              3835           3.7926383e-13
        14   2.9134074           5014   192            236            383            0              4203           3.9374786e-13
        15   3.0129719           5418   198            240            405            0              4575           4.0778057e-13
        16   3.100479            5803   203            241            431            0              4928           4.2108242e-13
        17   3.1875683           6196   208            247            445            0              5296           4.3398615e-13
        18   3.2898066           6590   216            248            456            0              5670           4.4658159e-13
        19   3.3653404           6984   219            253            471            0              6041           4.5910124e-13
        20   3.4933273           7394   223            257            494            0              6420           4.7124724e-13
        21   3.5818084           7793   227            260            511            0              6795           4.8306444e-13
        22   3.6519097           8190   230            266            522            0              7172           4.94475e-13  
        23   3.7568438           8612   237            278            532            0              7565           5.056036e-13 
        24   3.8428142           9007   243            279            545            0              7940           5.1634252e-13
        25   3.9250865           9421   244            285            555            0              8337           5.266571e-13 
        26   4.0056174           9838   247            289            573            0              8729           5.366229e-13 
        27   4.130257           10243   250            291            590            0              9112           5.462084e-13 
        28   4.2192776          10634   251            293            603            0              9487           5.5498796e-13
        29   4.3059723          11051   255            295            620            0              9881           5.6350043e-13
        30   4.4446112          11453   258            298            628            0              10269          5.7170317e-13
        31   4.5500116          11856   262            303            639            0              10652          5.792028e-13 
        32   4.6671989          12270   264            310            646            0              11050          5.8651277e-13
        33   4.7819883          12663   267            311            657            0              11428          5.9360626e-13
        34   4.9480199          13085   268            315            669            0              11833          6.0067436e-13
        35   5.0782348          13478   269            317            681            0              12211          6.0713277e-13
        36   5.2732024          13890   271            320            688            0              12611          6.1357835e-13
        37   5.5003429          14292   274            321            694            0              13003          6.198231e-13 
        38   5.7929342          14691   281            321            701            0              13388          6.256609e-13 
        39   6.1174095          15102   283            323            712            0              13784          6.3149749e-13
        40   6.5398767          15500   284            325            721            0              14170          6.3707474e-13
        41   7.1795383          15906   287            327            726            0              14566          6.4220637e-13
        42   7.6586077          16299   288            329            733            0              14949          6.4736474e-13
        43   8.5195184          16704   289            333            735            0              15347          6.5229679e-13
        44   9.0768573          17107   290            334            745            0              15738          6.5681858e-13
        45   9.9968949          17509   296            336            748            0              16129          6.6107679e-13
        46   10.903495          17922   299            338            751            0              16534          6.6541186e-13
        47   11.81306           18335   301            340            759            0              16935          6.6977808e-13
        48   12.796985          18744   305            342            763            0              17334          6.7384568e-13
        49   13.747153          19154   308            345            770            0              17731          6.7767876e-13
        50   16.466626          19579   310            351            777            0              18141          6.8149926e-13
        51   17.453428          19976   311            352            782            0              18531          6.8519312e-13
        52   18.475001          20397   311            353            793            0              18940          6.8896774e-13
        53   19.502653          20811   314            355            798            0              19344          6.9229831e-13
        54   20.545535          21224   317            357            802            0              19748          6.954598e-13 
        55   21.618976          21646   318            358            809            0              20161          6.9866993e-13
        56   22.71961           22062   321            361            812            0              20568          7.0180092e-13
        57   23.873203          22481   324            362            816            0              20979          7.049157e-13 
        58   25.025184          22898   325            364            820            1              21388          7.0757672e-13
        59   26.221572          23327   325            367            822            2              21811          7.1050449e-13
        60   46.329678          23738   326            370            827            2              22213          7.129712e-13 
        61   47.548322          24165   328            371            829            3              22634          7.1536155e-13
        62   48.777387          24572   330            373            833            4              23032          7.1775516e-13
        63   50.033714          25004   332            373            837            6              23456          7.2033086e-13
        64   51.309544          25408   332            374            838            7              23857          7.2272403e-13
        65   52.60802           25846   333            376            839            7              24291          7.2527793e-13
        66   53.972143          26259   339            379            842            9              24690          7.2756152e-13
        67   55.353864          26711   343            383            843            11             25131          7.2985974e-13
        68   56.762421          27137   345            385            845            14             25548          7.3218828e-13
        69   58.18993           27579   345            386            842            19             25987          7.3472717e-13
        70   59.736573          27987   345            388            842            22             26390          7.3712502e-13
        71   61.226472          28426   347            389            843            25             26822          7.3943019e-13
        72   62.761794          28852   348            389            846            26             27243          7.4183765e-13
        73   64.345451          29289   348            394            846            29             27672          7.4451257e-13
        74   65.957235          29710   351            396            845            35             28083          7.4753994e-13
        75   67.617185          30166   353            399            847            39             28528          7.5096875e-13
        76   69.320621          30595   353            399            855            40             28948          7.5474932e-13
        77   71.052664          31040   354            400            862            44             29380          7.5909281e-13
        78   72.821433          31461   356            403            864            49             29789          7.6349322e-13
        79   74.64454           31916   357            403            870            57             30229          7.6859434e-13
        80   76.773015          32330   358            405            878            60             30629          7.7396577e-13
        81   78.669428          32772   358            406            885            66             31057          7.8041017e-13
        82   80.604582          33213   361            407            903            71             31471          7.8720409e-13
        83   82.545447          33659   365            409            912            80             31893          7.9456734e-13
        84   84.546807          34118   366            411            932            85             32324          8.0222486e-13
        85   86.59069           34541   366            411            948            89             32727          8.1028531e-13
        86   88.696963          35006   369            412            968            93             33164          8.1883466e-13
        87   90.838482          35435   370            412            988            98             33567          8.2799572e-13
        88   92.973456          35875   370            413            1003           112            33977          8.3775699e-13
        89   95.149235          36314   372            413            1029           116            34384          8.4794469e-13
        90   97.439504          36760   373            413            1047           127            34800          8.5845982e-13
        91   99.672222          37195   374            415            1066           136            35204          8.6890416e-13
        92   101.90271          37633   375            416            1092           142            35608          8.7961705e-13
        93   104.25348          38058   375            417            1111           152            36003          8.9028514e-13
        94   106.60232          38503   376            417            1143           154            36413          9.0182703e-13
        95   108.98823          38929   376            417            1177           158            36801          9.1347338e-13
        96   111.42985          39369   378            417            1213           165            37196          9.2531609e-13
        97   113.91835          39794   379            418            1245           171            37581          9.3773253e-13
        98   116.46514          40220   380            418            1272           176            37974          9.5067785e-13
        99   119.04724          40645   381            418            1306           182            38358          9.6380337e-13
       100   121.78815          41062   385            418            1339           187            38733          9.7751172e-13
       101   124.43869          41487   386            418            1378           194            39111          9.9200423e-13
       102   127.07177          41888   388            418            1411           199            39472          1.0065155e-12
       103   129.7741           42294   390            418            1441           208            39837          1.0210875e-12
       104   132.50204          42722   392            418            1492           215            40205          1.0354098e-12
       105   135.24916          43114   395            418            1530           221            40550          1.0497964e-12
       106   138.01784          43517   396            418            1566           229            40908          1.0642596e-12
       107   140.81814          43930   398            419            1610           237            41266          1.0787958e-12
       108   143.67036          44340   402            420            1639           251            41628          1.0934468e-12
       109   146.51396          44739   404            420            1681           257            41977          1.1076227e-12
       110   149.56073          45143   406            420            1701           274            42342          1.1215914e-12
       111   152.46489          45546   410            421            1738           283            42694          1.1355961e-12
       112   155.49647          45971   415            421            1777           290            43068          1.1492263e-12
       113   158.6578           46365   415            421            1822           304            43403          1.1632316e-12
       114   161.79171          46808   419            423            1858           314            43794          1.1777154e-12
       115   164.94989          47190   420            424            1900           326            44120          1.1923606e-12
       116   168.20107          47609   422            425            1935           344            44483          1.2071155e-12
       117   171.4713           47993   426            426            1971           355            44815          1.2220774e-12
       118   174.77488          48408   427            427            2001           373            45180          1.2371172e-12
       119   178.09035          48822   429            428            2039           388            45538          1.2525421e-12
       120   181.57456          49201   432            430            2083           396            45860          1.2680196e-12
       121   184.95696          49595   434            433            2134           404            46190          1.2834225e-12
       122   188.39347          49995   435            434            2174           417            46535          1.2986133e-12
       123   191.79548          50377   437            435            2214           429            46862          1.3131925e-12
       124   195.28142          50793   440            437            2258           440            47218          1.3267711e-12
       125   198.85502          51211   442            441            2304           454            47570          1.3402161e-12
       126   202.48717          51599   443            445            2344           466            47901          1.3540624e-12
       127   206.18606          52016   446            447            2401           474            48248          1.3685252e-12
       128   209.96143          52427   448            447            2437           493            48602          1.3830714e-12
       129   213.78906          52846   451            447            2480           511            48957          1.3982735e-12
       130   217.80171          53242   452            450            2514           537            49289          1.4139622e-12
       131   221.71973          53669   453            451            2580           547            49638          1.4299891e-12
       132   225.65317          54097   455            451            2626           569            49996          1.4464837e-12
       133   229.64995          54536   456            453            2680           581            50366          1.4628293e-12
       134   233.68518          54936   457            454            2734           597            50694          1.479327e-12 
       135   237.74236          55392   457            456            2800           613            51066          1.4958646e-12
       136   241.85268          55823   457            456            2841           634            51435          1.5121302e-12
       137   246.05311          56234   457            456            2890           656            51775          1.5281775e-12
       138   250.33251          56676   457            457            2949           676            52137          1.5443524e-12
       139   254.69623          57108   457            458            3008           692            52493          1.5608705e-12
       140   259.23628          57565   459            458            3054           719            52875          1.5780654e-12
       141   263.74211          58032   460            459            3118           738            53257          1.5956952e-12
       142   268.28551          58468   460            459            3187           753            53609          1.6145326e-12
       143   272.90065          58937   461            460            3260           764            53992          1.6335269e-12
       144   277.54406          59385   461            460            3340           777            54347          1.6529074e-12
       145   282.20083          59850   461            460            3423           790            54716          1.6727975e-12
       146   286.95216          60321   462            461            3491           795            55112          1.692147e-12 
       147   291.71759          60792   464            462            3585           804            55477          1.7108365e-12
       148   296.6142           61283   464            462            3668           819            55870          1.7291098e-12
       149   301.58458          61754   464            464            3739           833            56254          1.7482024e-12
       150   306.76446          62228   465            464            3822           846            56631          1.7670632e-12
       151   311.85383          62700   465            464            3897           855            57019          1.7860672e-12
       152   317.06825          63188   465            464            3974           871            57414          1.8057349e-12
       153   322.33606          63670   465            464            4071           888            57782          1.8270288e-12
       154   327.67951          64166   465            464            4152           901            58184          1.8493699e-12
       155   333.10688          64657   465            464            4237           920            58571          1.8722841e-12
       156   338.59843          65126   465            465            4307           945            58944          1.8958845e-12
       157   344.16562          65624   465            465            4401           962            59331          1.9197638e-12
       158   349.76436          66126   465            465            4492           982            59722          1.9435819e-12
       159   355.48467          66610   465            465            4553           1017           60110          1.967433e-12 
       160   361.4475           67120   465            465            4647           1042           60501          1.9921025e-12
       161   367.34774          67618   465            465            4754           1063           60871          2.0177378e-12
       162   373.37936          68130   465            464            4855           1080           61266          2.0443612e-12
       163   379.45842          68605   466            464            4944           1107           61624          2.0726597e-12
       164   385.64216          69112   466            464            5031           1126           62025          2.1017884e-12
       165   391.90167          69612   465            463            5126           1159           62399          2.1319154e-12
       166   398.21938          70129   465            463            5223           1198           62780          2.1629902e-12
       167   404.60278          70624   465            463            5343           1224           63129          2.194146e-12 
       168   411.05359          71133   465            463            5431           1267           63507          2.2254163e-12
       169   417.68669          71641   465            462            5542           1300           63872          2.2560691e-12
       170   424.50405          72145   465            462            5633           1333           64252          2.2871519e-12
       171   431.25004          72651   465            462            5735           1370           64619          2.3183694e-12
       172   438.12483          73148   465            462            5836           1414           64971          2.3508944e-12
       173   445.05306          73663   465            462            5911           1478           65347          2.3846678e-12
       174   452.11409          74167   465            462            6008           1539           65693          2.4196355e-12
       175   459.28779          74675   465            461            6104           1595           66050          2.4561965e-12
       176   466.51534          75188   465            461            6198           1656           66408          2.4941973e-12
       177   473.83191          75685   465            460            6280           1717           66763          2.5328321e-12
       178   481.21871          76209   465            460            6384           1773           67127          2.5715986e-12
       179   488.85805          76697   465            459            6474           1838           67461          2.6104093e-12
       180   496.62336          77242   465            456            6576           1907           67838          2.6503872e-12
       181   504.35364          77758   465            453            6700           1975           68165          2.6904504e-12
       182   512.15281          78290   465            453            6801           2041           68530          2.7323839e-12
       183   520.054            78801   465            452            6927           2089           68868          2.7753216e-12
       184   528.02294          79315   465            450            7057           2148           69195          2.8207315e-12
       185   536.11411          79872   465            449            7179           2216           69563          2.8679038e-12
       186   544.29611          80410   464            448            7318           2271           69909          2.9176298e-12
       187   552.58782          80957   464            447            7476           2325           70245          2.9691438e-12
       188   560.98171          81492   464            444            7639           2371           70574          3.0217865e-12
       189   569.47022          82048   464            440            7807           2422           70915          3.0758112e-12
       190   578.24551          82606   464            439            7994           2458           71251          3.1315746e-12
       191   586.935            83157   463            438            8185           2500           71571          3.1891634e-12
       192   595.78049          83728   463            436            8408           2537           71884          3.2488189e-12
       193   604.74989          84339   463            436            8646           2576           72218          3.3115711e-12
       194   613.82841          84903   463            435            8835           2628           72542          3.3772666e-12
       195   623.02655          85474   462            434            9052           2676           72850          3.4453267e-12
       196   632.38402          86076   460            433            9293           2724           73166          3.5172214e-12
       197   641.77337          86685   460            432            9523           2777           73493          3.5915816e-12
       198   651.32434          87306   460            431            9774           2834           73807          3.6686737e-12
       199   661.00488          87921   459            431            10042          2883           74106          3.7495469e-12
       200   670.99319          88566   459            429            10311          2940           74427          3.8365753e-12
       201   680.93987          89222   459            428            10596          2997           74742          3.9304008e-12
       202   690.98393          89871   457            426            10897          3064           75027          4.0332209e-12
       203   701.15607          90600   457            426            11243          3127           75347          4.1425102e-12
       204   711.50541          91331   457            425            11606          3179           75664          4.2606886e-12
       205   722.00459          92027   456            423            11958          3247           75943          4.3865574e-12
       206   732.71969          92752   456            420            12299          3327           76250          4.5156512e-12
       207   743.58118          93520   454            419            12690          3407           76550          4.6506063e-12
       208   754.66178          94298   452            419            13093          3480           76854          4.7879303e-12
       209   765.96718          95053   452            418            13509          3534           77140          4.9207807e-12
       210   777.64474          95845   451            418            13919          3612           77445          5.0584749e-12
       211   789.29335          96648   451            416            14352          3687           77742          5.2046799e-12
       212   801.19355          97411   451            415            14779          3763           78003          5.3421574e-12
       213   813.17059          98251   451            414            15210          3865           78311          5.4877635e-12
       214   825.29816          99041   451            410            15619          3950           78611          5.6286458e-12
       215   837.61377          99850   451            410            16082          4035           78872          5.7855075e-12
       216   850.06121         100653   451            408            16509          4119           79166          5.9249588e-12
       217   862.62294         101484   450            406            16972          4209           79447          6.0743218e-12
       218   875.31354         102318   450            404            17481          4269           79714          6.227942e-12 
       219   888.13351         103195   450            400            17969          4363           80013          6.3836902e-12
       220   901.26584         104016   450            400            18450          4445           80271          6.5494794e-12
       221   914.28895         104912   448            398            18998          4529           80539          6.7198962e-12
       222   927.42076         105771   447            394            19528          4618           80784          6.8872294e-12
       223   940.56944         106691   447            394            20101          4693           81056          7.0765384e-12
       224   953.81067         107599   447            392            20693          4768           81299          7.2541216e-12
       225   967.13182         108508   446            391            21257          4854           81560          7.4213496e-12
       226   980.53835         109424   445            391            21890          4912           81786          7.6234088e-12
       227   993.96381         110355   444            388            22502          5008           82013          7.8137192e-12
       228   1007.4278         111274   442            387            23121          5086           82238          8.0042538e-12
       229   1020.9659         112312   440            387            23821          5199           82465          8.2175791e-12
       230   1034.8299         113326   437            382            24520          5319           82668          8.430077e-12 
       231   1048.5234         114237   432            379            25113          5466           82847          8.6328566e-12
       232   1062.2696         115175   431            376            25741          5594           83033          8.8435817e-12
       233   1076.0762         116190   431            370            26435          5726           83228          9.0481934e-12
       234   1089.9187         117162   429            367            27115          5866           83385          9.2462956e-12
       235   1103.8251         118175   426            365            27791          6035           83558          9.469151e-12 
       236   1117.7925         119158   422            363            28432          6229           83712          9.6822949e-12
       237   1131.7441         120066   418            357            28983          6457           83851          9.8683401e-12
       238   1145.7318         121045   418            350            29618          6675           83984          1.0077817e-11
       239   1159.76           122024   414            347            30220          6933           84110          1.0278218e-11
       240   1174.1043         122877   413            344            30690          7214           84216          1.0468173e-11
       241   1188.245          123855   411            343            31257          7515           84329          1.0643398e-11
       242   1202.4167         124735   406            339            31762          7805           84423          1.0838494e-11
       243   1216.664          125594   402            332            32236          8095           84529          1.1010012e-11
       244   1230.8921         126470   395            323            32735          8391           84626          1.1166139e-11
       245   1245.1612         127242   393            319            33128          8691           84711          1.1280907e-11
       246   1259.5383         128003   388            315            33542          8975           84783          1.1423997e-11
       247   1273.9811         128794   385            312            33989          9263           84845          1.1540756e-11
       248   1288.4508         129501   378            304            34365          9546           84908          1.1647739e-11
       249   1302.9914         130187   375            297            34718          9810           84987          1.1749193e-11
       250   1317.8494         130912   372            289            35128          10072          85051          1.1843811e-11
       251   1332.4605         131534   369            281            35461          10315          85108          1.1894515e-11
       252   1347.1385         132235   363            279            35875          10548          85170          1.1968064e-11
       253   1361.8581         132826   354            273            36204          10785          85210          1.2036978e-11
       254   1376.5948         133438   346            261            36552          11006          85273          1.2091994e-11
       255   1391.3915         134001   341            252            36861          11228          85319          1.2132987e-11
       256   1406.2399         134615   335            245            37180          11497          85358          1.2174633e-11
       257   1421.095          135209   327            233            37524          11715          85410          1.2206738e-11
       258   1435.9904         135712   322            228            37770          11938          85454          1.2238649e-11
       259   1450.9682         136202   313            219            38006          12177          85487          1.2255388e-11
       260   1466.2244         136772   300            217            38300          12421          85534          1.2271617e-11
       261   1481.268          137288   294            205            38542          12678          85569          1.2287604e-11
       262   1496.3496         137763   289            194            38740          12928          85612          1.2297081e-11
       263   1511.4949         138268   273            189            38932          13219          85655          1.230521e-11 
       264   1526.7292         138838   267            182            39171          13529          85689          1.2325129e-11
       265   1541.954          139237   258            174            39255          13826          85724          1.2316583e-11
       266   1557.2362         139707   241            167            39393          14156          85750          1.2327693e-11
       267   1572.5481         140176   231            164            39523          14457          85801          1.2320918e-11
       268   1587.8849         140612   221            160            39627          14774          85830          1.2309771e-11
       269   1603.2892         141011   211            155            39668          15104          85873          1.2301634e-11
       270   1619.0784         141424   196            144            39743          15434          85907          1.2282689e-11
       271   1634.5884         141904   189            136            39890          15745          85944          1.2281875e-11
       272   1650.157          142378   182            128            39984          16094          85990          1.2294352e-11
       273   1665.7589         142790   169            125            40015          16453          86028          1.2279305e-11
       274   1681.4059         143246   155            116            40101          16814          86060          1.2281362e-11
       275   1697.0862         143614   150            109            40084          17177          86094          1.2258992e-11
       276   1712.7617         143976   141            103            40099          17501          86132          1.2234591e-11
       277   1728.4804         144384   127            97             40156          17842          86162          1.2239124e-11
       278   1744.2409         144786   124            94             40198          18168          86202          1.2240298e-11
       279   1760.0841         145340   114            87             40377          18518          86244          1.2250185e-11
       280   1776.3074         145747   108            84             40467          18811          86277          1.2245045e-11
       281   1792.2943         146047   103            81             40415          19139          86309          1.2207473e-11
       282   1808.3076         146447   97             79             40426          19498          86347          1.2190028e-11
       283   1824.4761         146910   90             73             40561          19799          86387          1.221963e-11 
       284   1840.6126         147318   86             70             40630          20103          86429          1.2203343e-11
       285   1856.7957         147722   82             66             40676          20437          86461          1.2206966e-11
       286   1873.0294         148062   78             62             40656          20770          86496          1.2181586e-11
       287   1889.2975         148488   74             55             40752          21071          86536          1.2178127e-11
       288   1905.6338         148868   63             49             40789          21397          86570          1.2177602e-11
       289   1922.0056         149233   54             47             40800          21740          86592          1.2196932e-11
       290   1938.8374         149636   50             46             40805          22113          86622          1.2196715e-11
       291   1955.3822         150053   43             45             40842          22463          86660          1.2179074e-11
       292   1972.0163         150424   39             41             40808          22847          86689          1.2164359e-11
       293   1988.6468         150779   36             40             40768          23217          86718          1.216097e-11 
       294   2005.33           151160   34             37             40746          23596          86747          1.2176255e-11
       295   2022.0462         151488   34             37             40698          23947          86772          1.217659e-11 
       296   2038.8803         151908   34             36             40666          24366          86806          1.2164843e-11
       297   2055.6976         152261   34             34             40567          24791          86835          1.2153984e-11
       298   2072.572          152684   33             34             40550          25204          86863          1.2158734e-11
       299   2089.492          152995   31             32             40426          25613          86893          1.2162623e-11
       300   2106.8399         153391   31             32             40383          26028          86917          1.2176534e-11
       301   2123.8163         153752   31             31             40222          26522          86946          1.2175243e-11
       302   2140.8625         154068   30             30             40058          26979          86971          1.2177126e-11
       303   2157.9674         154482   29             30             39974          27449          87000          1.218007e-11 
       304   2175.0825         154812   29             29             39795          27930          87029          1.2167692e-11
       305   2192.2487         155121   27             28             39599          28411          87056          1.2171395e-11
       306   2209.4245         155450   27             28             39419          28892          87084          1.2159926e-11
       307   2226.6535         155800   27             28             39224          29411          87110          1.2153245e-11
       308   2243.9254         156202   27             27             39093          29916          87139          1.2170746e-11
       309   2261.239          156618   26             26             39009          30394          87163          1.2191314e-11
       310   2278.9734         156968   25             25             38827          30901          87190          1.2217346e-11
       311   2296.3201         157295   24             25             38644          31388          87214          1.2214003e-11
       312   2313.7611         157636   24             25             38496          31850          87241          1.2220874e-11
       313   2331.2689         157967   24             25             38324          32327          87267          1.2206818e-11
       314   2348.7074         158341   24             25             38181          32820          87291          1.2217956e-11
       315   2366.1204         158658   24             25             38017          33273          87319          1.2225557e-11
       316   2383.6059         159043   24             25             37905          33745          87344          1.2254576e-11
       317   2401.1263         159383   24             25             37758          34202          87374          1.2268242e-11
       318   2418.8749         159723   23             24             37613          34669          87394          1.2271924e-11
       319   2436.625          160013   23             24             37399          35145          87422          1.2264589e-11
       320   2454.7953         160387   22             24             37327          35572          87442          1.2282529e-11
Loop time of 2454.8 on 16 procs for 320 steps with 160387 atoms

98.1% CPU use with 16 MPI tasks x 1 OpenMP threads

MPI task timing breakdown:
Section |  min time  |  avg time  |  max time  |%varavg| %total
---------------------------------------------------------------
Pair    | 625.9      | 703.05     | 856.26     | 235.9 | 28.64
Neigh   | 594.3      | 673.6      | 884.53     | 325.0 | 27.44
Comm    | 203.28     | 235.95     | 269.45     | 145.2 |  9.61
Output  | 26.642     | 26.642     | 26.643     |   0.0 |  1.09
Modify  | 427.11     | 804.21     | 970.49     | 549.3 | 32.76
Other   |            | 11.35      |            |       |  0.46

Nlocal:        10024.2 ave       14171 max        8456 min
Histogram: 5 4 3 0 2 0 0 0 0 2
Nghost:        7786.62 ave        9821 max        6621 min
Histogram: 3 4 1 3 1 0 1 1 0 2
Neighs:         100244 ave      111795 max       91994 min
Histogram: 2 3 1 3 2 1 1 1 1 1

Total # of neighbors = 1603897
Ave neighs/atom = 10.000168
Neighbor list builds = 28129
Dangerous builds = 27809

Total wall time: 0:41:24
