LAMMPS (23 Jun 2022 - Update 4)
  using 1 OpenMP thread(s) per MPI task
package omp 0
using multi-threaded neighbor list subroutines
#-----------------------------------------------------------------------------#
#                NUFEB Simulation: Heterotrophic Biofilm Growth               #
#-----------------------------------------------------------------------------#


#-----------------------------System Settings---------------------------------#

units si                                    # using si units (m, s, kg)
atom_style      coccus                      # using nufeb coccus atom style
atom_modify     map array sort 10 0         # map array - find atoms using indices
		                            # sort every 10

boundary        pp pp ff                    # periodic boundaries in x and y
                                            # fixed boundary in z

newton          off                         # forces between local and ghost
                                            # atoms are computed in each
					     # processor without communication

processors      * * 1                       # processor grid

comm_modify     vel yes                     # communicate velocities for ghost atoms

read_data       atom_ch.in	             # read atom.in file which defines domain size
Reading data file ...
  orthogonal box = (0 0 0) to (6e-05 6e-05 6e-05)
  4 by 4 by 1 MPI processor grid
  reading atoms ...
  150 atoms
  read_data CPU = 0.020 seconds
                                            # and initial atoms


#--------------------Microbes and Functional Groups-------------------------#

group           CROSS1   type 1               # assign type 1,2 atoms to CROSS group
50 atoms in group CROSS1
group           CROSS2   type 2
50 atoms in group CROSS2
group		CHEATER  type 3
50 atoms in group CHEATER
group           dead     type 4
0 atoms in group dead
group		EPS	 type 5
0 atoms in group EPS

neighbor        5e-7 bin                   # setting neighbour skin distance and style

neigh_modify    check yes                  # rebuild neighbour list if any atom
                                           # had moved more than half the skin distance


#--------------------------Mesh Grid and Substrates--------------------------#

# defining grid sytle, substrate names, and grid size
grid_style      nufeb/chemostat 3 sub metab1 metab2 5e-6

# set diffusion boundary conditions and initial concentrations (liquid:kg/m3)
grid_modify     set sub      pp pp nd  1.8e-4
No /omp style for force computation currently active
grid_modify     set metab1   pp pp nd  1e-4
No /omp style for force computation currently active
grid_modify     set metab2   pp pp nd  1e-4
No /omp style for force computation currently active


#--------------------------Biological Processes-------------------------------#

# heterotrophs growth
fix growth_cross1 CROSS1 nufeb/growth/cross1 sub 3.5e-5 metab2 4e-3 metab1 growth 0.009 yield 0.6 decay 2.6e-6 metab1_exp 20 epsyield 0.12 epsdens 30

fix growth_cross2 CROSS2 nufeb/growth/cross2 sub 3.5e-5 metab1 4e-3 metab2 growth 0.009 yield 0.6 decay 2.6e-6 metab2_exp 20 epsyield 0.12 epsdens 30

fix growth_cheater CHEATER nufeb/growth/cheater sub 3.5e-5 metab1 1e-3 metab2 1e-3 growth 0.009 yield 0.6 decay 2.6e-6

# heterotrophs division, division diameter: 1.36e-6
fix div1 CROSS1 nufeb/division/coccus 1.36e-6 464
fix div2 CROSS2 nufeb/division/coccus 1.36e-6 1550
fix div3 CHEATER nufeb/division/coccus 1.36e-6 3358

fix death1 CROSS1 nufeb/death/diameter dead 5.43e-7
fix death2 CROSS2 nufeb/death/diameter dead 5.43e-7
fix death3 CHEATER nufeb/death/diameter dead 5.43e-7

# EPS secretion from heterotrophs
fix eps1 CROSS1 nufeb/eps_secretion 5 EPS 1.1 30 5888
fix eps2 CROSS2 nufeb/eps_secretion 5 EPS 1.1 30 9140

#---------------------------Physical Processes--------------------------------#

pair_style  gran/hooke/history 1e-4 NULL 1e-5 NULL 0.0 0    # pairwise interaction
pair_coeff  * *                                             # between atoms

# pairwise interaction between z-wall and atoms
fix wall all wall/gran hooke/history 1e-3 NULL 1e-4 NULL 0 0 zplane 0.0 1e-04

fix vis all viscous 1e-5                                    # viscous damping force

fix grav all gravity 9.81 vector 0.0 0.0 -1.0

fix nve all nve/limit 1e-7                                  # NVE integration with
                                                            # maximum distance limit


#---------------------------Post-Physical Processes---------------------------#

fix coeff_sub all nufeb/diffusion_coeff sub ratio 0.8       # defining diffusion coeff in the biofilm
fix coeff_metab1 all nufeb/diffusion_coeff metab1 ratio 0.8    # region is 80% of the value in liquid
fix coeff_metab2 all nufeb/diffusion_coeff metab2 ratio 0.8

#---------------------------Chemical Processes---------------------------------#

fix diff_sub all nufeb/diffusion_reaction sub 1e-9        # diffusion reaction for updating
fix diff_metab1 all nufeb/diffusion_reaction metab1 4e-9     # distribusion of substrate concentration
fix diff_metab2 all nufeb/diffusion_reaction metab2 4e-9

#--------------------------Computations and Outputs----------------------------#

variable mass equal "mass(all)"                             # total mass
variable ncross1 equal "count(CROSS1)"                      # total # of CROSS1
variable ncross2 equal "count(CROSS2)"                      # total # of CROSS2
variable ncheater equal "count(CHEATER)"
variable ndead equal "count(dead)"
variable neps equal "count(EPS)"

shell mkdir vtk_EPS_ch                                            # dump vtk files to /vtk folder
dump du1 all vtk 10 vtk_EPS_ch/dump*.vtu id type diameter         # require build NUFEB with vtk option
dump du2 all grid/vtk 10 vtk_EPS_ch/dump_%_*.vti con rea den gro

#dump du3 all movie 10 movie.avi type diameter view 80 60    # dump video
#dump_modify du3 acolor 1 blue acolor 2 lightgrey framerate 10


                                                            # dump hdf5 files to /hdf5 folder
#shell mkdir hdf5                                           # require build NUFEB with hdf5 option
#dump du3 all nufeb/hdf5 10 dump.h5 id type x y z vx vy vz fx fy fz radius conc reac

thermo_style custom step cpu atoms v_ncross1 v_ncross2 v_ncheater v_ndead v_neps v_mass     # screen and log outputs
thermo 1
thermo_modify   lost ignore

#-----------------------------------Run----------------------------------------#

# issue run command, define timesteps for physical (pairdt) and chemical (diffdt) processes
run_style nufeb diffdt 1e-4 difftol 1e-6 pairdt 1e-2 pairtol 1 pairmax 1000 diffmax 5000

timestep 12000                                               # define biological timesteps (1000s)

run 320                                                    # growing biofilm for 900x1000s
Generated 0 of 6 mixed pair_coeff terms from geometric mixing rule
Last active /omp style is pair_style gran/hooke/history/omp
Neighbor list info ...
  update every 1 steps, delay 10 steps, check yes
  max neighbors/atom: 2000, page size: 100000
  master list distance cutoff = 2.49e-06
  ghost atom cutoff = 2.49e-06
  binsize = 1.245e-06, bins = 49 49 49
  1 neighbor lists, perpetual/occasional/extra = 1 0 0
  (1) pair gran/hooke/history/omp, perpetual
      attributes: half, newton off, size, history, omp
      pair build: half/size/bin/newtoff/omp
      stencil: full/bin/3d
      bin: standard
Per MPI rank memory allocation (min/avg/max) = 11.02 | 11.02 | 11.02 Mbytes
   Step          CPU          Atoms      v_ncross1      v_ncross2      v_ncheater      v_ndead         v_neps         v_mass    
         0   0                    150   50             50             50             0              0              1.3295396e-13
         1   0.39332843           432   90             85             86             0              171            1.7274894e-13
         2   0.77208005           792   120            124            135            0              413            1.9577966e-13
         3   1.0926659           1129   130            145            179            0              675            2.151272e-13 
         4   1.3957369           1444   139            156            198            0              951            2.3306986e-13
         5   1.6198604           1761   144            160            217            0              1240           2.5055349e-13
         6   1.7988803           2102   152            171            232            0              1547           2.6770717e-13
         7   1.9616749           2424   154            176            253            0              1841           2.8454133e-13
         8   2.111117            2773   162            183            273            0              2155           3.0109556e-13
         9   2.2513533           3132   166            191            291            0              2484           3.1734331e-13
        10   2.3986427           3496   175            196            314            0              2811           3.3329419e-13
        11   2.5061431           3870   184            203            332            0              3151           3.4855012e-13
        12   2.6313617           4236   186            205            348            0              3497           3.6351862e-13
        13   2.7318433           4613   192            213            361            0              3847           3.7787549e-13
        14   2.8302991           4989   196            218            373            0              4202           3.9176687e-13
        15   2.9147493           5374   203            220            391            0              4560           4.0496579e-13
        16   3.001815            5763   205            229            410            0              4919           4.1779551e-13
        17   3.1103109           6155   212            238            428            0              5277           4.3002498e-13
        18   3.1974443           6550   217            240            446            0              5647           4.4209715e-13
        19   3.2668706           6945   221            246            456            0              6022           4.5378675e-13
        20   3.3922904           7335   226            250            466            0              6393           4.6510858e-13
        21   3.4711552           7727   233            252            479            0              6763           4.7607317e-13
        22   3.5896386           8121   234            261            500            0              7126           4.8643623e-13
        23   3.6794652           8536   242            266            506            0              7522           4.9661784e-13
        24   3.7896725           8917   248            267            514            0              7888           5.0633867e-13
        25   3.8734645           9319   255            274            530            0              8260           5.1570794e-13
        26   3.9756713           9737   260            276            540            0              8661           5.2485284e-13
        27   4.0866173          10132   262            279            551            0              9040           5.334902e-13 
        28   4.2313538          10540   265            281            562            0              9432           5.4180711e-13
        29   4.3196904          10928   271            286            567            0              9804           5.4980858e-13
        30   4.4423275          11344   273            288            575            0              10208          5.575669e-13 
        31   4.5435538          11750   277            291            591            0              10591          5.6494318e-13
        32   4.6801086          12173   285            294            601            0              10993          5.7213499e-13
        33   4.8027707          12576   286            297            610            0              11383          5.7898155e-13
        34   4.9674106          12976   291            300            617            0              11768          5.8557553e-13
        35   5.1100807          13398   295            302            622            0              12179          5.9178293e-13
        36   5.3021674          13797   297            304            632            0              12564          5.9759249e-13
        37   5.5326287          14226   297            310            640            0              12979          6.0319097e-13
        38   5.8924127          14633   299            312            646            0              13376          6.0857577e-13
        39   6.3263045          15041   304            314            649            0              13774          6.1362375e-13
        40   6.7054596          15446   305            316            657            0              14168          6.1848037e-13
        41   7.4331688          15858   307            318            664            0              14569          6.2321664e-13
        42   8.2046995          16260   309            318            668            0              14965          6.2801779e-13
        43   8.9116271          16666   312            319            671            0              15364          6.3276696e-13
        44   9.8743105          17064   314            321            680            0              15749          6.3692553e-13
        45   10.742643          17484   319            322            683            0              16160          6.408322e-13 
        46   11.651637          17886   321            324            691            0              16550          6.4455266e-13
        47   12.556196          18294   323            328            696            0              16947          6.483602e-13 
        48   13.472206          18716   324            332            699            0              17361          6.5224326e-13
        49   14.411027          19133   325            333            706            0              17769          6.5594702e-13
        50   15.426563          19546   328            336            707            0              18175          6.5966446e-13
        51   16.407927          19955   331            337            712            0              18575          6.6317369e-13
        52   17.408067          20374   334            338            720            0              18982          6.6688831e-13
        53   18.440974          20792   337            340            721            1              19393          6.7054587e-13
        54   19.512896          21220   340            342            724            1              19813          6.7417546e-13
        55   20.604783          21641   341            344            727            2              20227          6.7766904e-13
        56   21.717             22059   342            344            734            2              20637          6.8110647e-13
        57   22.828047          22482   344            345            740            2              21051          6.8446441e-13
        58   23.974576          22903   348            346            748            2              21459          6.8776112e-13
        59   25.150382          23312   350            347            750            2              21863          6.9118713e-13
        60   26.430365          23752   351            349            754            3              22295          6.9453251e-13
        61   27.671163          24147   355            351            758            4              22679          6.982502e-13 
        62   28.942645          24603   357            356            762            4              23124          7.0215488e-13
        63   30.28382           25009   359            358            767            5              23520          7.062502e-13 
        64   31.615237          25459   362            358            774            5              23960          7.1084461e-13
        65   32.961727          25866   363            358            780            8              24357          7.1520633e-13
        66   34.354485          26305   364            358            786            8              24789          7.1975961e-13
        67   35.783759          26728   365            360            793            10             25200          7.2426635e-13
        68   37.230451          27167   367            361            804            10             25625          7.2909752e-13
        69   38.709598          27590   368            362            814            10             26036          7.3401992e-13
        70   40.287734          28036   370            363            826            13             26464          7.3903434e-13
        71   41.852221          28476   372            366            834            16             26888          7.4434694e-13
        72   43.41928           28899   372            366            847            19             27295          7.498683e-13 
        73   45.054541          29330   372            368            851            26             27713          7.5559191e-13
        74   46.685934          29760   373            368            862            26             28131          7.613819e-13 
        75   48.387088          30194   375            369            876            31             28543          7.6722208e-13
        76   50.078378          30634   376            371            885            35             28967          7.7343944e-13
        77   51.819506          31051   377            371            893            41             29369          7.7946439e-13
        78   53.639071          31502   379            373            904            45             29801          7.8587643e-13
        79   55.45585           31925   380            374            923            49             30199          7.9290212e-13
        80   57.398435          32381   383            374            941            53             30630          8.001383e-13 
        81   59.294148          32789   383            374            952            59             31021          8.0737022e-13
        82   61.316889          33252   383            375            961            69             31464          8.1515761e-13
        83   63.353525          33653   384            376            973            78             31842          8.2314495e-13
        84   65.397439          34100   384            377            988            88             32263          8.3215714e-13
        85   67.494929          34504   385            379            1008           93             32639          8.4141959e-13
        86   69.625047          34970   388            381            1035           97             33069          8.5189038e-13
        87   71.823056          35370   389            381            1050           108            33442          8.6262563e-13
        88   74.027923          35809   390            383            1076           114            33846          8.7432343e-13
        89   76.243445          36237   391            385            1108           122            34231          8.8624273e-13
        90   78.559546          36656   391            385            1139           130            34611          8.9839526e-13
        91   80.871355          37067   391            386            1166           132            34992          9.1083586e-13
        92   83.184662          37521   393            387            1205           138            35398          9.236441e-13 
        93   85.521817          37950   393            387            1235           148            35787          9.367717e-13 
        94   87.895751          38359   394            388            1263           156            36158          9.4998516e-13
        95   90.335565          38782   394            390            1293           163            36542          9.6352546e-13
        96   92.801655          39189   394            390            1330           168            36907          9.7757681e-13
        97   95.252671          39641   394            394            1378           173            37302          9.9214063e-13
        98   97.798468          40041   394            394            1420           178            37655          1.006627e-12 
        99   100.3533           40460   394            395            1459           184            38028          1.0218871e-12
       100   103.0464           40859   395            395            1498           189            38382          1.0372769e-12
       101   105.74335          41288   395            397            1549           195            38752          1.0531236e-12
       102   108.43242          41692   396            399            1592           203            39102          1.0688819e-12
       103   111.1334           42109   396            401            1632           206            39474          1.0854434e-12
       104   113.88157          42518   396            401            1674           215            39832          1.1021383e-12
       105   116.7391           42931   396            402            1729           224            40180          1.1189409e-12
       106   119.57031          43342   397            406            1780           229            40530          1.1364066e-12
       107   122.4759           43763   397            409            1827           235            40895          1.153976e-12 
       108   125.40515          44178   398            409            1890           237            41244          1.1717519e-12
       109   128.31558          44573   398            410            1927           249            41589          1.1892254e-12
       110   131.36673          44986   399            412            1981           254            41940          1.2060503e-12
       111   134.36486          45380   399            414            2023           267            42277          1.2226579e-12
       112   137.41525          45804   399            417            2081           280            42627          1.2392596e-12
       113   140.53302          46189   400            418            2115           295            42961          1.2554694e-12
       114   143.6683           46587   400            421            2150           308            43308          1.2714619e-12
       115   146.93769          46989   400            424            2197           317            43651          1.2876527e-12
       116   150.23081          47392   402            425            2229           340            43996          1.3038178e-12
       117   153.56795          47747   403            428            2269           353            44294          1.3194697e-12
       118   156.94808          48182   404            430            2322           367            44659          1.3353941e-12
       119   160.44901          48559   405            433            2365           377            44979          1.3513634e-12
       120   164.09546          48953   405            436            2406           391            45315          1.3685256e-12
       121   167.6366           49351   407            437            2447           409            45651          1.3862364e-12
       122   171.24572          49744   408            437            2511           420            45968          1.4039691e-12
       123   174.89703          50142   408            440            2550           439            46305          1.4214349e-12
       124   178.56241          50540   409            443            2605           453            46630          1.4389774e-12
       125   182.28327          50956   411            443            2661           466            46975          1.4562771e-12
       126   186.02507          51340   411            444            2725           476            47284          1.4727226e-12
       127   189.83191          51736   412            445            2780           488            47611          1.4888371e-12
       128   193.6905           52164   413            446            2835           499            47971          1.5049811e-12
       129   197.59554          52528   414            446            2884           514            48270          1.5205491e-12
       130   201.73492          52948   417            447            2947           522            48615          1.5365014e-12
       131   205.81782          53380   418            449            3019           541            48953          1.5525134e-12
       132   209.95338          53764   418            450            3067           557            49272          1.5686108e-12
       133   214.15986          54189   419            451            3130           572            49617          1.5852591e-12
       134   218.42747          54610   420            456            3189           592            49953          1.6022984e-12
       135   222.70097          55014   422            457            3254           613            50268          1.6201397e-12
       136   227.00838          55455   422            458            3315           636            50624          1.6378347e-12
       137   231.3518           55881   423            460            3383           647            50968          1.6550487e-12
       138   235.73269          56316   423            462            3445           672            51314          1.672178e-12 
       139   240.14137          56716   424            463            3508           686            51635          1.6884812e-12
       140   244.76513          57185   425            465            3568           709            52018          1.7045103e-12
       141   249.36059          57602   425            465            3613           734            52365          1.7197242e-12
       142   254.028            58053   425            465            3676           749            52738          1.7360484e-12
       143   258.80429          58498   425            466            3749           762            53096          1.7522952e-12
       144   263.62115          58956   428            466            3822           780            53460          1.7696413e-12
       145   268.48529          59419   430            466            3896           798            53829          1.7876043e-12
       146   273.43386          59887   430            466            3979           814            54198          1.8062877e-12
       147   278.45531          60318   430            466            4047           835            54540          1.8259314e-12
       148   283.50562          60809   430            466            4138           852            54923          1.846473e-12 
       149   288.61498          61244   430            466            4203           875            55270          1.8668591e-12
       150   293.89873          61752   430            467            4285           899            55671          1.8875721e-12
       151   299.13193          62225   430            468            4360           920            56047          1.907719e-12 
       152   304.50745          62703   430            468            4436           949            56420          1.928155e-12 
       153   309.90974          63164   432            467            4512           966            56787          1.9485422e-12
       154   315.41496          63680   432            468            4590           994            57196          1.9700184e-12
       155   320.9909           64163   432            468            4677           1021           57565          1.9927521e-12
       156   326.66908          64684   432            468            4771           1048           57965          2.0167135e-12
       157   332.40145          65171   432            468            4862           1069           58340          2.0419651e-12
       158   338.24636          65660   432            468            4932           1107           58721          2.0679551e-12
       159   344.18202          66180   432            464            5045           1137           59102          2.0946533e-12
       160   350.32841          66684   432            464            5137           1170           59481          2.1219044e-12
       161   356.40668          67221   432            464            5253           1191           59881          2.1491116e-12
       162   362.59819          67721   432            464            5352           1208           60265          2.1759572e-12
       163   368.86272          68235   432            464            5462           1236           60641          2.2029235e-12
       164   375.23468          68745   432            464            5562           1263           61024          2.230012e-12 
       165   381.72687          69267   432            463            5658           1294           61420          2.2589327e-12
       166   388.31379          69763   432            463            5765           1319           61784          2.2883793e-12
       167   394.99397          70298   432            463            5865           1353           62185          2.3199693e-12
       168   401.75769          70809   432            463            5974           1390           62550          2.3535275e-12
       169   408.60361          71351   432            463            6108           1422           62926          2.3886856e-12
       170   415.7195           71863   432            463            6220           1452           63296          2.4245987e-12
       171   422.72745          72376   432            461            6298           1509           63676          2.4614605e-12
       172   429.89959          72919   432            460            6433           1556           64038          2.4983022e-12
       173   437.13071          73479   432            460            6555           1607           64425          2.536368e-12 
       174   444.48342          73987   432            460            6668           1664           64763          2.5748411e-12
       175   451.92193          74519   432            459            6748           1741           65139          2.6144717e-12
       176   459.45169          75064   431            458            6862           1808           65505          2.656759e-12 
       177   467.10084          75599   431            458            6986           1861           65863          2.7014354e-12
       178   474.86872          76145   431            457            7138           1904           66215          2.7483921e-12
       179   482.7145           76681   430            456            7287           1956           66552          2.7975363e-12
       180   490.83634          77246   430            456            7450           2003           66907          2.8480076e-12
       181   498.90416          77796   430            456            7614           2049           67247          2.8997185e-12
       182   507.09852          78372   430            456            7786           2102           67598          2.952121e-12 
       183   515.40714          78939   430            456            7959           2150           67944          3.006473e-12 
       184   523.7998           79504   429            455            8134           2202           68284          3.0624297e-12
       185   532.29035          80104   429            453            8341           2254           68627          3.1207564e-12
       186   540.89137          80654   428            452            8496           2327           68951          3.1815081e-12
       187   549.63508          81275   428            452            8712           2378           69305          3.2448739e-12
       188   558.47974          81888   428            452            8939           2437           69632          3.3103354e-12
       189   567.46058          82497   427            452            9158           2492           69968          3.3784622e-12
       190   576.7097           83085   427            452            9351           2557           70298          3.4493514e-12
       191   585.87418          83706   427            452            9569           2622           70636          3.5218882e-12
       192   595.25515          84326   427            451            9788           2695           70965          3.5979853e-12
       193   604.7105           84987   427            450            10039          2764           71307          3.6760846e-12
       194   614.32384          85622   427            450            10283          2839           71623          3.7599564e-12
       195   624.10974          86299   426            449            10551          2912           71961          3.8521572e-12
       196   634.05121          86995   426            448            10821          2999           72301          3.9519978e-12
       197   644.16551          87703   426            448            11116          3084           72629          4.0607593e-12
       198   654.44933          88428   426            446            11450          3155           72951          4.1802205e-12
       199   664.93322          89158   425            446            11774          3250           73263          4.309766e-12 
       200   675.79481          89950   425            446            12157          3319           73603          4.4425292e-12
       201   686.64612          90728   425            445            12542          3397           73919          4.5831143e-12
       202   697.77604          91528   425            445            12939          3483           74236          4.7233461e-12
       203   709.03572          92352   425            444            13335          3579           74569          4.8658194e-12
       204   720.43146          93137   425            442            13743          3653           74874          5.0071475e-12
       205   731.98453          93964   425            442            14191          3716           75190          5.148278e-12 
       206   743.78802          94774   425            441            14610          3804           75494          5.294286e-12 
       207   755.72587          95610   425            440            15069          3862           75814          5.442801e-12 
       208   767.83             96454   424            439            15556          3916           76119          5.5984943e-12
       209   780.08232          97317   424            438            16072          3965           76418          5.7533612e-12
       210   792.60362          98163   424            438            16550          4031           76720          5.9048735e-12
       211   805.02427          98999   424            436            17002          4108           77029          6.0495909e-12
       212   817.60113          99894   424            435            17547          4176           77312          6.2121493e-12
       213   830.26924         100776   424            433            18049          4264           77606          6.3831281e-12
       214   843.00608         101673   423            432            18545          4365           77908          6.5465175e-12
       215   855.82096         102601   422            430            19139          4443           78167          6.7253674e-12
       216   868.73997         103539   420            429            19705          4526           78459          6.900217e-12 
       217   881.7747          104476   420            429            20290          4612           78725          7.0733478e-12
       218   894.93988         105404   418            428            20867          4699           78992          7.2470361e-12
       219   908.13946         106333   416            428            21445          4793           79251          7.4341176e-12
       220   921.65883         107280   416            426            22033          4902           79503          7.6166618e-12
       221   935.0113          108261   414            425            22653          5026           79743          7.8334575e-12
       222   948.44732         109262   413            425            23289          5162           79973          8.0301277e-12
       223   961.92314         110240   412            425            23886          5312           80205          8.2444823e-12
       224   975.45408         111177   409            423            24448          5458           80439          8.4362635e-12
       225   989.06634         112227   404            423            25130          5627           80643          8.648409e-12 
       226   1002.7409         113208   404            422            25767          5783           80832          8.8622378e-12
       227   1016.4576         114219   401            418            26409          5938           81053          9.0575042e-12
       228   1030.2109         115192   400            412            27014          6153           81213          9.3051007e-12
       229   1044.0575         116224   398            407            27645          6390           81384          9.506244e-12 
       230   1058.2244         117183   395            404            28229          6634           81521          9.7328213e-12
       231   1072.0456         118180   392            400            28793          6908           81687          9.9313584e-12
       232   1085.869          119169   389            398            29341          7197           81844          1.0131494e-11
       233   1099.7724         120084   389            396            29860          7471           81968          1.0331745e-11
       234   1113.7343         121055   388            392            30450          7732           82093          1.0512304e-11
       235   1127.7539         121870   387            391            30902          7987           82203          1.0681814e-11
       236   1141.7848         122789   383            381            31487          8236           82302          1.0838911e-11
       237   1155.8876         123731   378            371            32061          8520           82401          1.1024747e-11
       238   1170.067          124489   376            366            32457          8792           82498          1.1165831e-11
       239   1184.2575         125320   371            362            32975          9026           82586          1.1299936e-11
       240   1198.7825         126086   370            359            33418          9258           82681          1.1419001e-11
       241   1213.0919         126879   364            354            33892          9511           82758          1.1550746e-11
       242   1227.4399         127591   361            351            34340          9716           82823          1.1645196e-11
       243   1241.8172         128246   357            341            34747          9917           82884          1.174143e-11 
       244   1256.2416         128887   353            334            35166          10089          82945          1.1818287e-11
       245   1270.7373         129618   351            330            35661          10258          83018          1.1895986e-11
       246   1285.2996         130245   347            320            36072          10440          83066          1.1959485e-11
       247   1299.9167         130948   344            316            36544          10623          83121          1.2037865e-11
       248   1314.533          131531   340            309            36896          10807          83179          1.2092564e-11
       249   1329.2089         132073   336            303            37198          11004          83232          1.2121213e-11
       250   1344.3383         132627   329            290            37478          11247          83283          1.2145575e-11
       251   1359.1552         133221   325            284            37828          11459          83325          1.2185593e-11
       252   1373.9741         133764   323            278            38065          11728          83370          1.2209924e-11
       253   1388.8284         134314   318            271            38310          11987          83428          1.2241413e-11
       254   1403.7036         134813   312            265            38516          12253          83467          1.2246714e-11
       255   1418.598          135339   303            255            38731          12547          83503          1.2273436e-11
       256   1433.5611         135823   298            244            38859          12876          83546          1.2278609e-11
       257   1448.6041         136263   291            239            38958          13196          83579          1.2254701e-11
       258   1463.7101         136754   284            232            39085          13532          83621          1.2275474e-11
       259   1478.8513         137205   279            224            39166          13872          83664          1.2252952e-11
       260   1494.3555         137699   269            212            39303          14200          83715          1.2270643e-11
       261   1509.6439         138106   262            201            39326          14567          83750          1.2271874e-11
       262   1524.9423         138627   257            190            39489          14903          83788          1.2264765e-11
       263   1540.2649         139099   252            179            39583          15257          83828          1.2266968e-11
       264   1555.6123         139541   245            172            39676          15570          83878          1.227066e-11 
       265   1571.0245         139979   236            161            39758          15901          83923          1.227409e-11 
       266   1586.5202         140465   226            149            39869          16256          83965          1.2285336e-11
       267   1602.0477         140888   216            143            39968          16567          83994          1.2263635e-11
       268   1617.6051         141303   207            141            39985          16926          84044          1.225062e-11 
       269   1633.1757         141725   197            131            40056          17257          84084          1.2241446e-11
       270   1649.138          142124   191            122            40080          17603          84128          1.222517e-11 
       271   1664.9433         142563   182            116            40160          17937          84168          1.2226592e-11
       272   1680.7651         142925   173            111            40202          18230          84209          1.220328e-11 
       273   1696.6538         143351   166            106            40298          18537          84244          1.2215869e-11
       274   1712.5877         143858   157            101            40502          18811          84287          1.2224122e-11
       275   1728.5317         144206   142            95             40528          19121          84320          1.2206598e-11
       276   1744.5315         144588   134            91             40533          19465          84365          1.2176236e-11
       277   1760.6231         145044   130            88             40612          19808          84406          1.2184286e-11
       278   1776.7624         145439   123            86             40665          20119          84446          1.2195194e-11
       279   1792.9379         145848   120            80             40691          20466          84491          1.2185828e-11
       280   1809.4806         146247   118            74             40744          20790          84521          1.2190904e-11
       281   1825.8271         146603   113            70             40726          21126          84568          1.2179649e-11
       282   1842.1569         146975   106            65             40724          21472          84608          1.2161412e-11
       283   1858.5702         147455   103            64             40833          21807          84648          1.217116e-11 
       284   1875.0262         147838   97             63             40838          22149          84691          1.2170985e-11
       285   1891.5008         148207   90             59             40793          22537          84728          1.2162371e-11
       286   1907.9966         148543   79             57             40747          22902          84758          1.2163515e-11
       287   1924.5491         148845   77             54             40613          23298          84803          1.2143584e-11
       288   1941.1583         149334   71             50             40712          23666          84835          1.2152436e-11
       289   1957.8313         149730   70             48             40688          24055          84869          1.2143114e-11
       290   1974.8829         150091   65             46             40622          24451          84907          1.2142623e-11
       291   1991.6134         150466   58             45             40558          24863          84942          1.2166441e-11
       292   2008.4131         150771   58             44             40352          25342          84975          1.2151221e-11
       293   2025.2151         151205   54             41             40345          25757          85008          1.2156194e-11
       294   2042.0599         151541   52             38             40164          26242          85045          1.2139526e-11
       295   2058.9512         151858   52             34             40015          26688          85069          1.2110813e-11
       296   2075.8678         152301   49             30             39945          27172          85105          1.2158979e-11
       297   2092.8409         152584   47             28             39756          27619          85134          1.2144079e-11
       298   2109.8656         152988   42             28             39671          28084          85163          1.21577e-11  
       299   2126.9401         153344   39             28             39516          28567          85194          1.2156363e-11
       300   2144.4111         153710   38             28             39364          29059          85221          1.2171288e-11
       301   2161.5992         154094   38             28             39236          29540          85252          1.2170545e-11
       302   2178.8325         154392   36             28             39032          30020          85276          1.2182355e-11
       303   2196.0764         154755   34             28             38902          30482          85309          1.2202503e-11
       304   2213.3798         155071   33             28             38671          31001          85338          1.2197311e-11
       305   2230.7818         155501   31             28             38612          31466          85364          1.2207866e-11
       306   2248.1966         155765   31             28             38328          31981          85397          1.2189585e-11
       307   2265.7095         156167   31             28             38223          32464          85421          1.223399e-11 
       308   2283.2326         156492   31             27             38033          32950          85451          1.2223691e-11
       309   2300.6574         156889   31             27             37915          33437          85479          1.2261454e-11
       310   2318.4344         157278   31             27             37816          33893          85511          1.2273942e-11
       311   2336.084          157583   31             27             37630          34361          85534          1.2254152e-11
       312   2353.8667         157946   29             27             37532          34790          85568          1.2269403e-11
       313   2371.633          158241   28             27             37384          35213          85589          1.2260373e-11
       314   2389.4469         158543   28             27             37237          35629          85622          1.226039e-11 
       315   2407.2042         158915   28             27             37125          36089          85646          1.2299722e-11
       316   2425.0099         159257   28             27             37028          36497          85677          1.2307283e-11
       317   2442.9852         159647   27             27             36973          36919          85701          1.2313176e-11
       318   2460.9873         159954   27             26             36865          37304          85732          1.2314497e-11
       319   2479.0484         160252   27             26             36740          37706          85753          1.2310684e-11
       320   2497.6111         160653   27             25             36753          38061          85787          1.2335673e-11
Loop time of 2497.61 on 16 procs for 320 steps with 160653 atoms

98.5% CPU use with 16 MPI tasks x 1 OpenMP threads

MPI task timing breakdown:
Section |  min time  |  avg time  |  max time  |%varavg| %total
---------------------------------------------------------------
Pair    | 631.63     | 708.14     | 874.13     | 257.8 | 28.35
Neigh   | 578.44     | 667.06     | 909.86     | 379.8 | 26.71
Comm    | 210.43     | 243.65     | 281.56     | 151.7 |  9.76
Output  | 6.0282     | 6.0283     | 6.0292     |   0.0 |  0.24
Modify  | 436.37     | 860.88     | 1029.7     | 603.8 | 34.47
Other   |            | 11.85      |            |       |  0.47

Nlocal:        10040.8 ave       14758 max        8536 min
Histogram: 8 3 1 2 0 0 0 0 0 2
Nghost:        7729.75 ave        9960 max        6627 min
Histogram: 5 3 2 1 1 0 0 2 0 2
Neighs:         100472 ave      113117 max       93463 min
Histogram: 4 1 2 4 1 0 2 0 0 2

Total # of neighbors = 1607544
Ave neighs/atom = 10.006312
Neighbor list builds = 28239
Dangerous builds = 27919

Total wall time: 0:41:38
