LAMMPS (23 Jun 2022 - Update 4)
  using 1 OpenMP thread(s) per MPI task
package omp 0
using multi-threaded neighbor list subroutines
#-----------------------------------------------------------------------------#
#                NUFEB Simulation: Heterotrophic Biofilm Growth               #
#-----------------------------------------------------------------------------#


#-----------------------------System Settings---------------------------------#

units si                                    # using si units (m, s, kg)
atom_style      coccus                      # using nufeb coccus atom style
atom_modify     map array sort 10 0         # map array - find atoms using indices
		                            # sort every 10

boundary        pp pp ff                    # periodic boundaries in x and y
                                            # fixed boundary in z

newton          off                         # forces between local and ghost
                                            # atoms are computed in each
					     # processor without communication

processors      * * 1                       # processor grid

comm_modify     vel yes                     # communicate velocities for ghost atoms

read_data       atom_ch.in	             # read atom.in file which defines domain size
Reading data file ...
  orthogonal box = (0 0 0) to (6e-05 6e-05 6e-05)
  4 by 4 by 1 MPI processor grid
  reading atoms ...
  150 atoms
  read_data CPU = 0.019 seconds
                                            # and initial atoms


#--------------------Microbes and Functional Groups-------------------------#

group           CROSS1   type 1               # assign type 1,2 atoms to CROSS group
50 atoms in group CROSS1
group           CROSS2   type 2
50 atoms in group CROSS2
group		CHEATER  type 3
50 atoms in group CHEATER
group           dead     type 4
0 atoms in group dead
group		EPS	 type 5
0 atoms in group EPS

neighbor        5e-7 bin                   # setting neighbour skin distance and style

neigh_modify    check yes                  # rebuild neighbour list if any atom
                                           # had moved more than half the skin distance


#--------------------------Mesh Grid and Substrates--------------------------#

# defining grid sytle, substrate names, and grid size
grid_style      nufeb/chemostat 3 sub metab1 metab2 5e-6

# set diffusion boundary conditions and initial concentrations (liquid:kg/m3)
grid_modify     set sub      pp pp nd  1.8e-4
No /omp style for force computation currently active
grid_modify     set metab1   pp pp nd  1e-4
No /omp style for force computation currently active
grid_modify     set metab2   pp pp nd  1e-4
No /omp style for force computation currently active


#--------------------------Biological Processes-------------------------------#

# heterotrophs growth
fix growth_cross1 CROSS1 nufeb/growth/cross1 sub 3.5e-5 metab2 4e-3 metab1 growth 0.009 yield 0.6 decay 2.6e-6 metab1_exp 20 epsyield 0.12 epsdens 30

fix growth_cross2 CROSS2 nufeb/growth/cross2 sub 3.5e-5 metab1 4e-3 metab2 growth 0.009 yield 0.6 decay 2.6e-6 metab2_exp 20 epsyield 0.12 epsdens 30

fix growth_cheater CHEATER nufeb/growth/cheater sub 3.5e-5 metab1 1e-3 metab2 1e-3 growth 0.009 yield 0.6 decay 2.6e-6

# heterotrophs division, division diameter: 1.36e-6
fix div1 CROSS1 nufeb/division/coccus 1.36e-6 832
fix div2 CROSS2 nufeb/division/coccus 1.36e-6 3022
fix div3 CHEATER nufeb/division/coccus 1.36e-6 6670

fix death1 CROSS1 nufeb/death/diameter dead 5.43e-7
fix death2 CROSS2 nufeb/death/diameter dead 5.43e-7
fix death3 CHEATER nufeb/death/diameter dead 5.43e-7

# EPS secretion from heterotrophs
fix eps1 CROSS1 nufeb/eps_secretion 5 EPS 1.1 30 11776
fix eps2 CROSS2 nufeb/eps_secretion 5 EPS 1.1 30 18340

#---------------------------Physical Processes--------------------------------#

pair_style  gran/hooke/history 1e-4 NULL 1e-5 NULL 0.0 0    # pairwise interaction
pair_coeff  * *                                             # between atoms

# pairwise interaction between z-wall and atoms
fix wall all wall/gran hooke/history 1e-3 NULL 1e-4 NULL 0 0 zplane 0.0 1e-04

fix vis all viscous 1e-5                                    # viscous damping force

fix grav all gravity 9.81 vector 0.0 0.0 -1.0

fix nve all nve/limit 1e-7                                  # NVE integration with
                                                            # maximum distance limit


#---------------------------Post-Physical Processes---------------------------#

fix coeff_sub all nufeb/diffusion_coeff sub ratio 0.8       # defining diffusion coeff in the biofilm
fix coeff_metab1 all nufeb/diffusion_coeff metab1 ratio 0.8    # region is 80% of the value in liquid
fix coeff_metab2 all nufeb/diffusion_coeff metab2 ratio 0.8

#---------------------------Chemical Processes---------------------------------#

fix diff_sub all nufeb/diffusion_reaction sub 1e-9        # diffusion reaction for updating
fix diff_metab1 all nufeb/diffusion_reaction metab1 4e-9     # distribusion of substrate concentration
fix diff_metab2 all nufeb/diffusion_reaction metab2 4e-9

#--------------------------Computations and Outputs----------------------------#

variable mass equal "mass(all)"                             # total mass
variable ncross1 equal "count(CROSS1)"                      # total # of CROSS1
variable ncross2 equal "count(CROSS2)"                      # total # of CROSS2
variable ncheater equal "count(CHEATER)"
variable ndead equal "count(dead)"
variable neps equal "count(EPS)"

shell mkdir vtk_EPS_ch                                            # dump vtk files to /vtk folder
dump du1 all vtk 10 vtk_EPS_ch/dump*.vtu id type diameter         # require build NUFEB with vtk option
dump du2 all grid/vtk 10 vtk_EPS_ch/dump_%_*.vti con rea den gro

#dump du3 all movie 10 movie.avi type diameter view 80 60    # dump video
#dump_modify du3 acolor 1 blue acolor 2 lightgrey framerate 10


                                                            # dump hdf5 files to /hdf5 folder
#shell mkdir hdf5                                           # require build NUFEB with hdf5 option
#dump du3 all nufeb/hdf5 10 dump.h5 id type x y z vx vy vz fx fy fz radius conc reac

thermo_style custom step cpu atoms v_ncross1 v_ncross2 v_ncheater v_ndead v_neps v_mass     # screen and log outputs
thermo 1
thermo_modify   lost ignore

#-----------------------------------Run----------------------------------------#

# issue run command, define timesteps for physical (pairdt) and chemical (diffdt) processes
run_style nufeb diffdt 1e-4 difftol 1e-6 pairdt 1e-2 pairtol 1 pairmax 1000 diffmax 5000

timestep 12000                                               # define biological timesteps (1000s)

run 320                                                    # growing biofilm for 900x1000s
Generated 0 of 6 mixed pair_coeff terms from geometric mixing rule
Last active /omp style is pair_style gran/hooke/history/omp
Neighbor list info ...
  update every 1 steps, delay 10 steps, check yes
  max neighbors/atom: 2000, page size: 100000
  master list distance cutoff = 2.49e-06
  ghost atom cutoff = 2.49e-06
  binsize = 1.245e-06, bins = 49 49 49
  1 neighbor lists, perpetual/occasional/extra = 1 0 0
  (1) pair gran/hooke/history/omp, perpetual
      attributes: half, newton off, size, history, omp
      pair build: half/size/bin/newtoff/omp
      stencil: full/bin/3d
      bin: standard
Per MPI rank memory allocation (min/avg/max) = 11.02 | 11.02 | 11.02 Mbytes
   Step          CPU          Atoms      v_ncross1      v_ncross2      v_ncheater      v_ndead         v_neps         v_mass    
         0   0                    150   50             50             50             0              0              1.3295396e-13
         1   0.39317473           432   90             85             86             0              171            1.7260104e-13
         2   0.77855542           794   121            123            136            0              414            1.9529829e-13
         3   1.095407            1123   130            144            180            0              669            2.1430813e-13
         4   1.404937            1437   137            157            198            0              945            2.3192033e-13
         5   1.6138426           1752   142            164            217            0              1229           2.4903582e-13
         6   1.7868314           2087   146            177            233            0              1531           2.6603614e-13
         7   1.9595478           2421   152            180            245            0              1844           2.8260987e-13
         8   2.1258261           2768   160            187            267            0              2154           2.9898996e-13
         9   2.2675158           3131   168            193            288            0              2482           3.1522929e-13
        10   8.5165137           3508   179            200            311            0              2818           3.3109109e-13
        11   8.6556922           3872   182            204            328            0              3158           3.465723e-13 
        12   8.7585867           4258   186            213            347            0              3512           3.6165447e-13
        13   8.8631479           4641   190            220            362            0              3869           3.7642989e-13
        14   8.9655159           5043   197            229            380            0              4237           3.9061674e-13
        15   9.0910583           5432   200            237            392            0              4603           4.0450024e-13
        16   9.1905665           5831   206            238            412            0              4975           4.1825113e-13
        17   9.2857716           6229   209            245            434            0              5341           4.315551e-13 
        18   9.4025054           6608   213            248            445            0              5702           4.4446588e-13
        19   9.5113999           7012   217            255            467            0              6073           4.5706305e-13
        20   15.43607            7432   220            263            488            0              6461           4.6920423e-13
        21   15.523157           7808   229            265            501            0              6813           4.8079631e-13
        22   15.637726           8232   237            268            516            0              7211           4.92083e-13  
        23   15.753232           8617   239            271            532            0              7575           5.0285585e-13
        24   15.849844           9017   243            275            544            0              7955           5.1325848e-13
        25   15.983581           9431   247            278            556            0              8350           5.2332761e-13
        26   16.078625           9795   249            279            566            0              8701           5.3254621e-13
        27   16.164828          10197   251            281            578            0              9087           5.4195234e-13
        28   16.238824          10596   255            285            592            0              9464           5.5098347e-13
        29   16.366207          10998   261            289            607            0              9841           5.598151e-13 
        30   16.537612          11403   265            293            619            0              10226          5.6843285e-13
        31   16.668018          11803   269            296            627            0              10611          5.7678539e-13
        32   16.817016          12189   274            297            634            0              10984          5.8488893e-13
        33   16.949563          12579   274            298            646            0              11361          5.9237716e-13
        34   17.094174          12978   277            300            654            0              11747          5.9979107e-13
        35   17.248917          13372   282            302            662            0              12126          6.0662166e-13
        36   17.378312          13759   286            303            673            0              12497          6.1323994e-13
        37   17.610366          14152   288            306            679            0              12879          6.1976153e-13
        38   17.859426          14568   294            309            688            0              13277          6.2582933e-13
        39   18.2149            14967   297            313            695            0              13662          6.3141552e-13
        40   18.770725          15389   302            317            700            0              14070          6.3694731e-13
        41   19.32437           15787   306            317            709            0              14455          6.4221031e-13
        42   20.15613           16184   309            320            714            0              14841          6.4725594e-13
        43   20.7768            16610   311            322            724            0              15253          6.522601e-13 
        44   21.627756          16991   314            323            728            0              15626          6.568617e-13 
        45   22.462549          17423   321            325            733            0              16044          6.6110302e-13
        46   23.367984          17821   324            325            735            0              16437          6.6540116e-13
        47   24.320725          18237   325            327            738            0              16847          6.6940685e-13
        48   25.251846          18643   327            330            741            0              17245          6.7290693e-13
        49   26.203023          19072   329            333            744            0              17666          6.7672444e-13
        50   27.238853          19461   332            334            748            0              18047          6.802543e-13 
        51   28.262236          19901   335            335            755            0              18476          6.8387504e-13
        52   29.31801           20303   336            337            761            0              18869          6.8725672e-13
        53   30.453708          20738   341            338            762            0              19297          6.9070134e-13
        54   31.511641          21127   342            339            763            0              19683          6.93094e-13  
        55   32.607543          21579   345            344            768            0              20122          6.9593083e-13
        56   33.711462          21980   347            344            773            0              20516          6.987357e-13 
        57   34.846909          22402   347            346            782            0              20927          7.0165632e-13
        58   35.999539          22828   350            348            783            0              21347          7.043494e-13 
        59   37.18507           23249   353            352            784            0              21760          7.068706e-13 
        60   38.457387          23683   354            353            790            1              22185          7.0945747e-13
        61   39.73794           24110   355            354            795            2              22604          7.1195182e-13
        62   41.013186          24528   359            354            794            4              23017          7.1426029e-13
        63   42.309057          24961   360            358            794            6              23443          7.1659558e-13
        64   43.633281          25394   363            359            799            7              23866          7.1887785e-13
        65   44.965256          25805   365            360            801            9              24270          7.2093856e-13
        66   46.351958          26254   368            361            805            10             24710          7.2332621e-13
        67   47.770289          26674   370            362            803            13             25126          7.2570417e-13
        68   49.182773          27113   372            364            808            13             25556          7.286021e-13 
        69   50.623622          27563   374            368            809            15             25997          7.3145782e-13
        70   52.206225          28000   375            368            810            18             26429          7.3427841e-13
        71   53.803944          28439   375            369            809            21             26865          7.3724137e-13
        72   55.395147          28881   376            370            810            23             27302          7.4041512e-13
        73   57.028969          29312   378            371            810            29             27724          7.4377042e-13
        74   58.697946          29743   379            372            811            35             28146          7.4750463e-13
        75   60.399551          30184   379            372            811            41             28581          7.5150694e-13
        76   62.139309          30614   379            372            815            46             29002          7.5560865e-13
        77   63.940921          31056   379            372            817            50             29438          7.5988124e-13
        78   65.783807          31471   381            372            826            54             29838          7.6459433e-13
        79   67.672988          31924   382            372            832            59             30279          7.7019665e-13
        80   69.704181          32336   382            373            838            67             30676          7.7602153e-13
        81   71.677234          32791   382            375            854            69             31111          7.8260414e-13
        82   73.640483          33208   382            378            864            74             31510          7.8964739e-13
        83   75.683276          33662   384            379            875            80             31944          7.9697833e-13
        84   77.779011          34088   385            379            892            84             32348          8.0497883e-13
        85   79.889878          34517   387            380            913            88             32749          8.1351601e-13
        86   82.034742          34974   390            381            929            98             33176          8.2269858e-13
        87   84.259155          35396   390            382            950            105            33569          8.3213181e-13
        88   86.512464          35834   392            382            963            114            33983          8.4241288e-13
        89   88.807618          36282   393            383            992            122            34392          8.5313667e-13
        90   91.278707          36709   393            384            1006           132            34794          8.6442648e-13
        91   93.696372          37139   393            384            1039           136            35187          8.765662e-13 
        92   96.082301          37580   393            384            1084           139            35580          8.8958574e-13
        93   98.636754          38014   393            384            1123           143            35971          9.0284106e-13
        94   101.14215          38457   393            385            1158           148            36373          9.1761338e-13
        95   103.71692          38870   393            385            1198           155            36739          9.3260858e-13
        96   106.29375          39301   393            385            1243           157            37123          9.485258e-13 
        97   108.963            39720   393            385            1288           160            37494          9.6463649e-13
        98   111.69137          40131   393            386            1340           163            37849          9.8142147e-13
        99   114.42945          40569   393            386            1393           168            38229          9.993616e-13 
       100   117.33916          40968   394            387            1440           174            38573          1.0177689e-12
       101   120.12167          41389   394            387            1493           182            38933          1.0365765e-12
       102   122.92467          41793   394            387            1535           191            39286          1.0555834e-12
       103   125.7801           42216   394            387            1596           195            39644          1.0746443e-12
       104   128.6722           42618   394            387            1653           202            39982          1.0934962e-12
       105   131.61369          43027   394            387            1700           206            40340          1.1124649e-12
       106   134.55902          43416   394            387            1758           212            40665          1.1311661e-12
       107   137.58719          43828   394            388            1802           225            41019          1.1496272e-12
       108   140.63883          44219   395            388            1841           235            41360          1.1680469e-12
       109   143.80513          44632   395            388            1881           243            41725          1.1864387e-12
       110   147.10581          44978   395            388            1930           253            42012          1.2047111e-12
       111   150.36498          45418   397            388            1996           260            42377          1.2234444e-12
       112   153.70194          45789   398            388            2047           271            42685          1.2417134e-12
       113   157.08982          46190   399            389            2104           282            43016          1.260872e-12 
       114   160.48189          46594   400            389            2162           290            43353          1.2803645e-12
       115   163.94789          46953   401            389            2223           293            43647          1.2992878e-12
       116   167.46097          47363   401            389            2286           299            43988          1.3186942e-12
       117   170.99124          47729   403            389            2332           303            44302          1.3383966e-12
       118   174.61286          48091   404            389            2388           310            44600          1.3577297e-12
       119   178.29315          48477   404            389            2453           313            44918          1.3763832e-12
       120   182.16315          48836   404            390            2498           322            45222          1.3953751e-12
       121   185.98331          49210   406            390            2553           330            45531          1.4142281e-12
       122   189.85396          49597   406            390            2614           336            45851          1.4326621e-12
       123   193.82512          49959   406            390            2688           340            46135          1.4508283e-12
       124   197.86096          50332   408            391            2751           342            46440          1.4689367e-12
       125   201.98381          50709   409            393            2810           350            46747          1.4873515e-12
       126   206.15595          51053   411            393            2867           356            47026          1.5054436e-12
       127   210.41348          51423   411            395            2920           370            47327          1.5235242e-12
       128   214.75765          51780   411            395            2979           386            47609          1.5427034e-12
       129   219.11233          52150   413            396            3040           410            47891          1.5626097e-12
       130   223.68493          52543   416            397            3105           430            48195          1.5826169e-12
       131   228.17066          52914   418            398            3173           457            48468          1.6021577e-12
       132   232.70764          53272   418            399            3228           482            48745          1.6209476e-12
       133   237.30095          53672   418            399            3288           512            49055          1.6397902e-12
       134   241.97208          54015   420            401            3333           539            49322          1.6579935e-12
       135   246.72186          54406   422            401            3391           571            49621          1.6756843e-12
       136   251.53798          54784   422            402            3444           602            49914          1.6932224e-12
       137   256.46674          55150   423            402            3497           634            50194          1.7100029e-12
       138   261.44889          55541   424            402            3548           664            50503          1.7270212e-12
       139   266.53996          55915   426            404            3598           699            50788          1.7436324e-12
       140   271.85162          56287   426            405            3653           731            51072          1.7602758e-12
       141   277.16389          56687   426            407            3714           758            51382          1.7765935e-12
       142   282.58028          57046   426            408            3775           786            51651          1.7932335e-12
       143   288.06202          57421   426            408            3837           810            51940          1.8097036e-12
       144   293.63548          57809   428            409            3890           838            52244          1.8266462e-12
       145   299.26658          58228   429            409            3967           861            52562          1.8440131e-12
       146   304.9821           58623   430            410            4040           878            52865          1.861291e-12 
       147   310.78081          59008   431            410            4121           891            53155          1.8782371e-12
       148   316.63989          59397   431            410            4192           900            53464          1.8948166e-12
       149   322.56186          59781   431            410            4275           910            53755          1.9108421e-12
       150   328.70807          60199   433            410            4349           923            54084          1.9264723e-12
       151   334.78649          60582   434            410            4424           942            54372          1.9415801e-12
       152   340.95712          61002   434            411            4511           947            54699          1.9568618e-12
       153   347.28978          61399   435            411            4594           962            54997          1.9721688e-12
       154   353.74195          61852   435            410            4687           977            55343          1.9883717e-12
       155   360.28381          62260   435            410            4761           992            55662          2.0058244e-12
       156   366.94035          62673   435            410            4844           1014           55970          2.0242345e-12
       157   373.68293          63103   436            408            4935           1027           56297          2.0438493e-12
       158   380.5167           63533   436            408            5031           1041           56617          2.0642165e-12
       159   387.46166          63998   436            408            5132           1060           56962          2.0853316e-12
       160   395.0899           64441   436            408            5232           1080           57285          2.1062243e-12
       161   402.21435          64865   437            408            5317           1097           57606          2.1274132e-12
       162   409.50534          65304   437            408            5405           1119           57935          2.1484293e-12
       163   416.83351          65777   437            409            5504           1144           58283          2.1699988e-12
       164   424.28331          66198   437            408            5596           1168           58589          2.1912126e-12
       165   431.85921          66659   437            407            5695           1188           58932          2.2130359e-12
       166   439.57135          67097   437            407            5798           1208           59247          2.2364973e-12
       167   447.42982          67581   437            405            5913           1237           59589          2.2607424e-12
       168   455.39343          68055   437            405            6018           1257           59938          2.2866406e-12
       169   463.4987           68507   437            405            6132           1286           60247          2.3130473e-12
       170   471.89688          68985   437            405            6220           1330           60593          2.3403665e-12
       171   480.26732          69456   437            405            6319           1372           60923          2.3679927e-12
       172   488.75358          69912   437            405            6396           1430           61244          2.395516e-12 
       173   497.34211          70390   436            405            6484           1473           61592          2.4239003e-12
       174   506.0549           70820   436            405            6558           1529           61892          2.4522253e-12
       175   514.90222          71287   436            404            6628           1586           62233          2.4810282e-12
       176   523.87667          71752   436            404            6702           1660           62550          2.5106138e-12
       177   532.97434          72216   436            402            6800           1718           62860          2.5409845e-12
       178   542.15238          72694   436            401            6866           1795           63196          2.5732626e-12
       179   551.48338          73147   436            401            6960           1863           63487          2.6065028e-12
       180   561.1317           73634   436            401            7034           1930           63833          2.6410513e-12
       181   570.73346          74103   436            399            7121           2022           64125          2.6768171e-12
       182   580.46039          74587   436            399            7223           2095           64434          2.7135814e-12
       183   590.31996          75070   436            398            7315           2168           64753          2.750795e-12 
       184   600.31311          75549   436            398            7414           2247           65054          2.7877309e-12
       185   610.41868          76042   436            398            7517           2315           65376          2.825696e-12 
       186   620.65647          76491   436            398            7600           2387           65670          2.8637812e-12
       187   631.03305          76941   436            398            7699           2448           65960          2.9039766e-12
       188   641.55282          77469   436            398            7856           2498           66281          2.9459722e-12
       189   652.20559          77944   436            398            7996           2552           66562          2.9900615e-12
       190   663.19517          78438   436            397            8120           2617           66868          3.0359168e-12
       191   674.13135          78945   436            396            8287           2671           67155          3.0836208e-12
       192   685.20612          79435   435            395            8405           2752           67448          3.1325089e-12
       193   696.41356          79947   434            395            8557           2818           67743          3.1822255e-12
       194   707.78602          80434   431            395            8700           2881           68027          3.2333524e-12
       195   719.30446          80952   431            394            8855           2949           68323          3.2864054e-12
       196   730.97756          81468   430            392            9026           3013           68607          3.3420225e-12
       197   742.80353          81980   430            390            9209           3089           68862          3.4000992e-12
       198   754.7974           82545   429            387            9406           3145           69178          3.4618516e-12
       199   766.91421          83050   427            385            9581           3221           69436          3.5279306e-12
       200   779.41982          83608   422            383            9806           3290           69707          3.5970151e-12
       201   791.9421           84206   422            383            10059          3338           70004          3.6680132e-12
       202   804.65749          84756   421            381            10295          3400           70259          3.7423341e-12
       203   817.61597          85323   420            381            10518          3467           70537          3.8211584e-12
       204   830.76989          85918   419            381            10764          3537           70817          3.9060376e-12
       205   844.22899          86496   417            380            11037          3607           71055          4.0002526e-12
       206   857.825            87155   414            380            11348          3676           71337          4.1009045e-12
       207   871.62145          87843   413            379            11695          3736           71620          4.2118111e-12
       208   885.67644          88505   412            377            12042          3807           71867          4.3336583e-12
       209   899.92096          89170   411            377            12416          3858           72108          4.4638415e-12
       210   914.66722          89926   408            377            12810          3919           72412          4.6009535e-12
       211   929.49864          90684   408            373            13277          3977           72649          4.740749e-12 
       212   944.58239          91377   407            371            13686          4023           72890          4.8731552e-12
       213   959.85537          92053   404            370            14036          4082           73161          5.0033783e-12
       214   975.3235           92807   403            368            14454          4169           73413          5.1393506e-12
       215   990.94729          93521   403            368            14864          4237           73649          5.2772333e-12
       216   1006.7275          94299   403            367            15309          4301           73919          5.4211334e-12
       217   1022.6495          95041   402            366            15731          4382           74160          5.5617583e-12
       218   1038.722           95802   400            364            16178          4464           74396          5.7144567e-12
       219   1054.9353          96593   398            362            16634          4550           74649          5.8694823e-12
       220   1071.4403          97366   395            359            17073          4656           74883          6.02047e-12  
       221   1087.7551          98136   393            359            17534          4742           75108          6.1674078e-12
       222   1104.1337          98982   390            356            18016          4847           75373          6.3277988e-12
       223   1120.5596          99781   389            356            18511          4931           75594          6.4928518e-12
       224   1137.0956         100620   384            355            19036          5033           75812          6.6793081e-12
       225   1153.6857         101504   383            354            19573          5132           76062          6.8563383e-12
       226   1170.3818         102387   382            354            20135          5241           76275          7.0403775e-12
       227   1187.1226         103223   381            353            20656          5355           76478          7.2161494e-12
       228   1203.9545         104185   380            351            21266          5472           76716          7.406284e-12 
       229   1220.8728         105018   376            348            21808          5590           76896          7.5925996e-12
       230   1238.1316         106016   372            347            22489          5707           77101          7.7960208e-12
       231   1255.2206         106882   369            345            23021          5837           77310          7.9937548e-12
       232   1272.3213         107846   366            343            23686          5962           77489          8.201458e-12 
       233   1289.5263         108726   364            341            24291          6092           77638          8.4113304e-12
       234   1306.8622         109744   360            337            24951          6251           77845          8.6147855e-12
       235   1324.313          110667   356            336            25596          6386           77993          8.8138117e-12
       236   1341.806          111575   354            333            26208          6537           78143          9.0187979e-12
       237   1359.383          112509   351            330            26852          6692           78284          9.2221295e-12
       238   1377.0917         113459   348            327            27475          6873           78436          9.4149438e-12
       239   1394.872          114399   342            324            28103          7052           78578          9.6298997e-12
       240   1413.0304         115327   341            319            28773          7196           78698          9.8228116e-12
       241   1431.0372         116334   339            315            29465          7397           78818          1.0056306e-11
       242   1449.1944         117246   332            310            30060          7612           78932          1.023885e-11 
       243   1467.4384         118135   325            303            30649          7835           79023          1.0433445e-11
       244   1485.755          119033   320            300            31235          8053           79125          1.0612097e-11
       245   1504.1882         119970   318            295            31837          8311           79209          1.0803409e-11
       246   1522.7639         120799   311            289            32316          8584           79299          1.095611e-11 
       247   1541.3954         121613   306            285            32807          8857           79358          1.1124567e-11
       248   1560.1182         122422   300            273            33262          9141           79446          1.1263894e-11
       249   1579.0128         123214   294            269            33737          9397           79517          1.1375577e-11
       250   1598.252          123926   291            260            34093          9694           79588          1.1505849e-11
       251   1617.3587         124697   284            256            34493          10006          79658          1.1602362e-11
       252   1636.5354         125385   275            248            34814          10345          79703          1.1712445e-11
       253   1655.7682         126114   268            245            35212          10637          79752          1.1815077e-11
       254   1675.0988         126790   261            238            35584          10905          79802          1.1917345e-11
       255   1694.4836         127420   257            228            35910          11181          79844          1.1960709e-11
       256   1714.0295         128069   249            224            36274          11439          79883          1.202021e-11 
       257   1733.6083         128592   235            222            36532          11684          79919          1.2079706e-11
       258   1753.2556         129187   228            217            36857          11923          79962          1.2140126e-11
       259   1773.0264         129726   225            209            37141          12146          80005          1.2175257e-11
       260   1793.1544         130277   216            202            37430          12377          80052          1.2183147e-11
       261   1813.0341         130829   204            198            37758          12590          80079          1.2196135e-11
       262   1833.028          131439   197            189            38145          12792          80116          1.2263156e-11
       263   1853.1095         131871   192            180            38352          13003          80144          1.2256615e-11
       264   1873.1993         132367   185            175            38590          13245          80172          1.2281592e-11
       265   1893.3948         132833   179            167            38780          13503          80204          1.2288065e-11
       266   1913.6908         133384   171            160            39038          13783          80232          1.2306032e-11
       267   1934.0344         133883   159            153            39246          14065          80260          1.2316715e-11
       268   1954.4612         134318   150            145            39393          14346          80284          1.2308002e-11
       269   1975.0092         134750   145            139            39478          14660          80328          1.2316271e-11
       270   1995.949          135215   137            137            39587          14994          80360          1.2310419e-11
       271   2016.7867         135698   136            134            39731          15311          80386          1.2316666e-11
       272   2037.6725         136138   130            130            39810          15657          80411          1.2318526e-11
       273   2058.5848         136552   123            123            39855          16006          80445          1.2296136e-11
       274   2079.5747         137037   118            119            39958          16367          80475          1.2270843e-11
       275   2100.6653         137504   113            117            40041          16722          80511          1.2303885e-11
       276   2121.8056         137896   106            111            40047          17086          80546          1.2310398e-11
       277   2143.0444         138311   103            107            40053          17476          80572          1.2301416e-11
       278   2164.4015         138759   97             102            40120          17828          80612          1.2280378e-11
       279   2185.8925         139176   93             94             40159          18183          80647          1.2265857e-11
       280   2207.7493         139556   86             90             40192          18512          80676          1.2271169e-11
       281   2229.2642         140015   80             87             40330          18812          80706          1.2260237e-11
       282   2250.8877         140423   75             81             40378          19147          80742          1.227097e-11 
       283   2272.5513         140825   72             77             40452          19451          80773          1.2255834e-11
       284   2294.2544         141203   67             74             40527          19728          80807          1.2240809e-11
       285   2316.0363         141612   66             71             40625          20013          80837          1.2230117e-11
       286   2337.8573         142057   60             70             40715          20335          80877          1.2235643e-11
       287   2359.7463         142408   52             69             40744          20634          80909          1.2204953e-11
       288   2381.762          142800   48             63             40804          20950          80935          1.2205773e-11
       289   2403.7989         143192   47             60             40817          21297          80971          1.2196304e-11
       290   2426.3543         143630   45             59             40900          21625          81001          1.2189589e-11
       291   2448.6264         144002   44             56             40911          21956          81035          1.220594e-11 
       292   2470.9396         144394   41             55             40926          22306          81066          1.2199675e-11
       293   2493.3952         144756   40             51             40921          22650          81094          1.2197601e-11
       294   2515.8055         145182   38             51             40961          23007          81125          1.2189893e-11
       295   2538.3511         145576   37             49             40991          23343          81156          1.2204056e-11
       296   2560.9026         145973   36             47             40971          23730          81189          1.2189309e-11
       297   2583.5108         146253   33             46             40852          24109          81213          1.2169694e-11
       298   2606.253          146608   33             43             40730          24556          81246          1.2165518e-11
       299   2629.0002         147013   33             40             40699          24965          81276          1.2178085e-11
       300   2652.2288         147433   31             39             40691          25369          81303          1.217617e-11 
       301   2675.2043         147822   31             38             40608          25810          81335          1.2174178e-11
       302   2698.266          148183   31             36             40516          26237          81363          1.2172049e-11
       303   2721.3983         148533   30             34             40400          26678          81391          1.2192247e-11
       304   2744.6413         148899   29             31             40303          27118          81418          1.2184554e-11
       305   2767.9327         149222   29             30             40136          27586          81441          1.2174444e-11
       306   2791.3019         149651   29             30             40062          28056          81474          1.2180492e-11
       307   2814.7386         149976   29             30             39862          28557          81498          1.21734e-11  
       308   2838.2109         150299   29             30             39691          29024          81525          1.2162535e-11
       309   2861.754          150683   29             29             39553          29518          81554          1.2189609e-11
       310   2885.7133         150981   28             29             39341          30002          81581          1.2158972e-11
       311   2909.4442         151388   28             29             39197          30524          81610          1.2177644e-11
       312   2933.1886         151674   27             28             39001          30982          81636          1.2184058e-11
       313   2957.0443         152069   27             26             38869          31481          81666          1.2195328e-11
       314   2980.9988         152481   27             26             38779          31960          81689          1.2204402e-11
       315   3005.0545         152751   27             24             38578          32403          81719          1.2202911e-11
       316   3029.3073         153106   27             24             38465          32848          81742          1.2225699e-11
       317   3053.4312         153506   27             24             38356          33328          81771          1.2243201e-11
       318   3077.7284         153793   27             24             38159          33789          81794          1.2221617e-11
       319   3101.9649         154154   27             24             38020          34259          81824          1.2254054e-11
       320   3126.5808         154542   27             24             37906          34735          81850          1.2246584e-11
Loop time of 3126.58 on 16 procs for 320 steps with 154542 atoms

98.1% CPU use with 16 MPI tasks x 1 OpenMP threads

MPI task timing breakdown:
Section |  min time  |  avg time  |  max time  |%varavg| %total
---------------------------------------------------------------
Pair    | 723.47     | 878.22     | 1196.6     | 393.1 | 28.09
Neigh   | 518.78     | 618.7      | 910.16     | 366.9 | 19.79
Comm    | 373.73     | 437.26     | 498.48     | 194.4 | 13.99
Output  | 18.166     | 18.166     | 18.168     |   0.0 |  0.58
Modify  | 514.25     | 1159.4     | 1368.2     | 622.3 | 37.08
Other   |            | 14.8       |            |       |  0.47

Nlocal:        9658.88 ave       15590 max        7952 min
Histogram: 5 6 2 0 2 0 0 0 0 1
Nghost:        7378.38 ave        9541 max        6455 min
Histogram: 4 5 1 2 0 1 2 0 0 1
Neighs:        94086.8 ave      110809 max       81748 min
Histogram: 1 0 3 6 1 2 0 2 0 1

Total # of neighbors = 1505388
Ave neighs/atom = 9.7409636
Neighbor list builds = 28185
Dangerous builds = 27865

Total wall time: 0:52:07
