LAMMPS (23 Jun 2022 - Update 4)
  using 1 OpenMP thread(s) per MPI task
package omp 0
using multi-threaded neighbor list subroutines
#-----------------------------------------------------------------------------#
#                NUFEB Simulation: Heterotrophic Biofilm Growth               #
#-----------------------------------------------------------------------------#


#-----------------------------System Settings---------------------------------#

units si                                    # using si units (m, s, kg)
atom_style      coccus                      # using nufeb coccus atom style
atom_modify     map array sort 10 0         # map array - find atoms using indices
		                            # sort every 10

boundary        pp pp ff                    # periodic boundaries in x and y
                                            # fixed boundary in z

newton          off                         # forces between local and ghost
                                            # atoms are computed in each
					     # processor without communication

processors      * * 1                       # processor grid

comm_modify     vel yes                     # communicate velocities for ghost atoms

read_data       atom_ch.in	             # read atom.in file which defines domain size
Reading data file ...
  orthogonal box = (0 0 0) to (6e-05 6e-05 6e-05)
  4 by 4 by 1 MPI processor grid
  reading atoms ...
  150 atoms
  read_data CPU = 0.028 seconds
                                            # and initial atoms


#--------------------Microbes and Functional Groups-------------------------#

group           CROSS1   type 1               # assign type 1,2 atoms to CROSS group
50 atoms in group CROSS1
group           CROSS2   type 2
50 atoms in group CROSS2
group		CHEATER  type 3
50 atoms in group CHEATER
group           dead     type 4
0 atoms in group dead
group		EPS	 type 5
0 atoms in group EPS

neighbor        5e-7 bin                   # setting neighbour skin distance and style

neigh_modify    check yes                  # rebuild neighbour list if any atom
                                           # had moved more than half the skin distance


#--------------------------Mesh Grid and Substrates--------------------------#

# defining grid sytle, substrate names, and grid size
grid_style      nufeb/chemostat 3 sub metab1 metab2 5e-6

# set diffusion boundary conditions and initial concentrations (liquid:kg/m3)
grid_modify     set sub      pp pp nd  1.8e-4
No /omp style for force computation currently active
grid_modify     set metab1   pp pp nd  1e-4
No /omp style for force computation currently active
grid_modify     set metab2   pp pp nd  1e-4
No /omp style for force computation currently active


#--------------------------Biological Processes-------------------------------#

# heterotrophs growth
fix growth_cross1 CROSS1 nufeb/growth/cross1 sub 3.5e-5 metab2 4e-3 metab1 growth 0.009 yield 0.6 decay 2.6e-6 metab1_exp 20 epsyield 0.12 epsdens 30

fix growth_cross2 CROSS2 nufeb/growth/cross2 sub 3.5e-5 metab1 4e-3 metab2 growth 0.009 yield 0.6 decay 2.6e-6 metab2_exp 20 epsyield 0.12 epsdens 30

fix growth_cheater CHEATER nufeb/growth/cheater sub 3.5e-5 metab1 1e-3 metab2 1e-3 growth 0.009 yield 0.6 decay 2.6e-6

# heterotrophs division, division diameter: 1.36e-6
fix div1 CROSS1 nufeb/division/coccus 1.36e-6 887
fix div2 CROSS2 nufeb/division/coccus 1.36e-6 3242
fix div3 CHEATER nufeb/division/coccus 1.36e-6 7165

fix death1 CROSS1 nufeb/death/diameter dead 5.43e-7
fix death2 CROSS2 nufeb/death/diameter dead 5.43e-7
fix death3 CHEATER nufeb/death/diameter dead 5.43e-7

# EPS secretion from heterotrophs
fix eps1 CROSS1 nufeb/eps_secretion 5 EPS 1.1 30 12656
fix eps2 CROSS2 nufeb/eps_secretion 5 EPS 1.1 30 19715

#---------------------------Physical Processes--------------------------------#

pair_style  gran/hooke/history 1e-4 NULL 1e-5 NULL 0.0 0    # pairwise interaction
pair_coeff  * *                                             # between atoms

# pairwise interaction between z-wall and atoms
fix wall all wall/gran hooke/history 1e-3 NULL 1e-4 NULL 0 0 zplane 0.0 1e-04

fix vis all viscous 1e-5                                    # viscous damping force

fix grav all gravity 9.81 vector 0.0 0.0 -1.0

fix nve all nve/limit 1e-7                                  # NVE integration with
                                                            # maximum distance limit


#---------------------------Post-Physical Processes---------------------------#

fix coeff_sub all nufeb/diffusion_coeff sub ratio 0.8       # defining diffusion coeff in the biofilm
fix coeff_metab1 all nufeb/diffusion_coeff metab1 ratio 0.8    # region is 80% of the value in liquid
fix coeff_metab2 all nufeb/diffusion_coeff metab2 ratio 0.8

#---------------------------Chemical Processes---------------------------------#

fix diff_sub all nufeb/diffusion_reaction sub 1e-9        # diffusion reaction for updating
fix diff_metab1 all nufeb/diffusion_reaction metab1 4e-9     # distribusion of substrate concentration
fix diff_metab2 all nufeb/diffusion_reaction metab2 4e-9

#--------------------------Computations and Outputs----------------------------#

variable mass equal "mass(all)"                             # total mass
variable ncross1 equal "count(CROSS1)"                      # total # of CROSS1
variable ncross2 equal "count(CROSS2)"                      # total # of CROSS2
variable ncheater equal "count(CHEATER)"
variable ndead equal "count(dead)"
variable neps equal "count(EPS)"

shell mkdir vtk_EPS_ch                                            # dump vtk files to /vtk folder
dump du1 all vtk 10 vtk_EPS_ch/dump*.vtu id type diameter         # require build NUFEB with vtk option
dump du2 all grid/vtk 10 vtk_EPS_ch/dump_%_*.vti con rea den gro

#dump du3 all movie 10 movie.avi type diameter view 80 60    # dump video
#dump_modify du3 acolor 1 blue acolor 2 lightgrey framerate 10


                                                            # dump hdf5 files to /hdf5 folder
#shell mkdir hdf5                                           # require build NUFEB with hdf5 option
#dump du3 all nufeb/hdf5 10 dump.h5 id type x y z vx vy vz fx fy fz radius conc reac

thermo_style custom step cpu atoms v_ncross1 v_ncross2 v_ncheater v_ndead v_neps v_mass     # screen and log outputs
thermo 1
thermo_modify   lost ignore

#-----------------------------------Run----------------------------------------#

# issue run command, define timesteps for physical (pairdt) and chemical (diffdt) processes
run_style nufeb diffdt 1e-4 difftol 1e-6 pairdt 1e-2 pairtol 1 pairmax 1000 diffmax 5000

timestep 12000                                               # define biological timesteps (1000s)

run 320                                                    # growing biofilm for 900x1000s
Generated 0 of 6 mixed pair_coeff terms from geometric mixing rule
Last active /omp style is pair_style gran/hooke/history/omp
Neighbor list info ...
  update every 1 steps, delay 10 steps, check yes
  max neighbors/atom: 2000, page size: 100000
  master list distance cutoff = 2.49e-06
  ghost atom cutoff = 2.49e-06
  binsize = 1.245e-06, bins = 49 49 49
  1 neighbor lists, perpetual/occasional/extra = 1 0 0
  (1) pair gran/hooke/history/omp, perpetual
      attributes: half, newton off, size, history, omp
      pair build: half/size/bin/newtoff/omp
      stencil: full/bin/3d
      bin: standard
Per MPI rank memory allocation (min/avg/max) = 11.02 | 11.02 | 11.02 Mbytes
   Step          CPU          Atoms      v_ncross1      v_ncross2      v_ncheater      v_ndead         v_neps         v_mass    
         0   0                    150   50             50             50             0              0              1.3295396e-13
         1   0.39405484           432   90             85             86             0              171            1.7277534e-13
         2   0.77566552           789   116            126            136            0              411            1.9571761e-13
         3   1.1014409           1117   129            145            179            0              664            2.1519024e-13
         4   1.3925391           1446   138            157            204            0              947            2.3343777e-13
         5   1.6199369           1757   142            163            218            0              1234           2.508084e-13 
         6   1.770452            2084   146            170            238            0              1530           2.6782159e-13
         7   1.9144663           2433   158            176            258            0              1841           2.8435265e-13
         8   2.0536023           2788   166            186            272            0              2164           3.0030145e-13
         9   2.1981663           3147   169            193            290            0              2495           3.1602316e-13
        10   2.3643338           3501   174            198            312            0              2817           3.3141045e-13
        11   2.4871736           3864   178            204            324            0              3158           3.4650425e-13
        12   2.6213033           4222   183            205            340            0              3494           3.6134205e-13
        13   2.7340697           4606   192            211            362            0              3841           3.7585281e-13
        14   2.8575742           5002   197            223            376            0              4206           3.9011336e-13
        15   2.9720113           5403   204            227            399            0              4573           4.0404118e-13
        16   3.0753199           5799   209            231            420            0              4939           4.1761682e-13
        17   3.2207526           6188   215            239            432            0              5302           4.308891e-13 
        18   3.3146039           6595   223            245            442            0              5685           4.4375589e-13
        19   3.4162012           7008   230            251            466            0              6061           4.5602735e-13
        20   6.5126347           7406   231            256            479            0              6440           4.679808e-13 
        21   6.6235607           7797   235            259            494            0              6809           4.7969667e-13
        22   6.7735594           8196   239            262            509            0              7186           4.9126918e-13
        23   6.9200979           8590   240            266            519            0              7565           5.0235774e-13
        24   7.0607422           8974   243            270            543            0              7918           5.1318892e-13
        25   7.2215852           9376   253            272            554            0              8297           5.2430488e-13
        26   7.3939655           9780   260            280            574            0              8666           5.3518864e-13
        27   7.6044377          10195   263            284            587            0              9061           5.4657586e-13
        28   7.7871431          10576   266            286            609            0              9415           5.5819297e-13
        29   7.9735519          11007   270            290            630            0              9817           5.7018801e-13
        30   8.167456           11402   273            291            655            0              10183          5.8174934e-13
        31   8.3588643          11821   278            294            680            0              10569          5.933465e-13 
        32   8.5166877          12238   281            298            701            0              10958          6.0510636e-13
        33   8.714766           12624   285            299            722            0              11318          6.1657708e-13
        34   8.8771331          13044   288            299            745            0              11712          6.279725e-13 
        35   9.0574578          13423   288            301            764            0              12070          6.3895711e-13
        36   9.2707069          13816   293            302            781            0              12440          6.4977519e-13
        37   9.5909771          14235   296            303            812            0              12824          6.6042975e-13
        38   9.8843235          14636   298            305            842            0              13191          6.7098725e-13
        39   10.310443          15030   300            308            867            0              13555          6.816139e-13 
        40   10.774456          15442   304            308            886            0              13944          6.9276211e-13
        41   11.114536          15843   309            308            911            0              14315          7.0373482e-13
        42   11.584477          16234   309            309            943            0              14673          7.1491822e-13
        43   12.066258          16644   313            310            970            0              15051          7.2660195e-13
        44   12.691145          17027   314            311            1004           0              15398          7.3851789e-13
        45   13.505011          17438   321            312            1024           0              15781          7.5138595e-13
        46   14.364298          17833   323            313            1069           0              16128          7.6468507e-13
        47   15.415112          18228   324            313            1100           0              16491          7.7830798e-13
        48   16.431283          18621   325            314            1134           0              16848          7.9228886e-13
        49   17.478947          19033   327            316            1173           0              17217          8.0629688e-13
        50   18.438267          19398   329            318            1204           0              17547          8.2018938e-13
        51   19.573875          19805   330            318            1247           0              17910          8.3423713e-13
        52   20.729109          20211   334            320            1293           0              18264          8.4816513e-13
        53   21.889855          20599   336            320            1330           0              18613          8.6213786e-13
        54   23.074599          20987   338            323            1369           0              18957          8.7564063e-13
        55   24.26685           21378   339            323            1406           1              19309          8.8905954e-13
        56   25.493208          21778   341            323            1452           1              19661          9.0242589e-13
        57   26.776168          22165   342            323            1488           3              20009          9.1587597e-13
        58   28.106036          22556   343            323            1522           5              20363          9.2969964e-13
        59   29.441162          22944   344            324            1556           8              20712          9.4371659e-13
        60   30.882293          23336   345            324            1599           11             21057          9.5793849e-13
        61   32.336156          23747   347            325            1648           15             21412          9.7251246e-13
        62   33.793127          24126   347            325            1699           16             21739          9.8778506e-13
        63   35.287777          24530   349            326            1752           21             22082          1.0035871e-12
        64   36.823657          24904   349            326            1796           22             22411          1.019765e-12 
        65   38.330401          25314   350            326            1848           26             22764          1.0363558e-12
        66   39.882472          25695   351            326            1894           29             23095          1.0529726e-12
        67   41.417716          26082   354            327            1939           34             23428          1.0698439e-12
        68   43.001447          26487   355            327            1999           42             23764          1.0865037e-12
        69   44.599493          26854   357            328            2039           49             24081          1.1029116e-12
        70   46.30585           27256   357            328            2090           56             24425          1.1194979e-12
        71   47.946359          27634   358            328            2132           72             24744          1.1358805e-12
        72   49.601328          28031   358            328            2199           79             25067          1.1521576e-12
        73   51.379967          28415   358            328            2236           96             25397          1.1682774e-12
        74   53.167027          28789   361            328            2281           110            25709          1.1846118e-12
        75   54.957791          29195   362            329            2323           119            26062          1.2014245e-12
        76   56.810263          29554   363            329            2380           127            26355          1.2182034e-12
        77   58.688162          29969   364            331            2445           136            26693          1.2354375e-12
        78   60.650906          30346   364            331            2482           154            27015          1.2528449e-12
        79   62.650488          30736   364            331            2538           168            27335          1.2709723e-12
        80   64.717815          31138   365            331            2588           189            27665          1.2901935e-12
        81   66.781894          31508   366            333            2640           203            27966          1.3090636e-12
        82   68.822308          31915   366            333            2695           222            28299          1.3281434e-12
        83   70.900431          32298   366            333            2769           227            28603          1.3471643e-12
        84   73.040555          32687   367            334            2822           247            28917          1.366257e-12 
        85   75.212222          33074   367            334            2885           262            29226          1.3856557e-12
        86   77.417044          33464   368            334            2949           279            29534          1.4053741e-12
        87   79.664176          33849   368            334            3014           293            29840          1.4254265e-12
        88   81.967263          34232   368            334            3087           299            30144          1.4456414e-12
        89   84.301588          34634   368            334            3157           311            30464          1.4668513e-12
        90   86.792254          35008   368            335            3228           320            30757          1.4881441e-12
        91   89.215313          35399   368            335            3302           331            31063          1.5104611e-12
        92   91.733033          35794   368            335            3403           336            31352          1.5334668e-12
        93   94.232052          36188   368            335            3483           344            31658          1.5571045e-12
        94   96.763877          36586   368            335            3573           351            31959          1.580615e-12 
        95   99.302379          36972   368            335            3655           362            32252          1.6038548e-12
        96   101.89987          37387   368            335            3762           370            32552          1.6268855e-12
        97   104.53696          37776   368            335            3860           376            32837          1.6497359e-12
        98   107.2105           38149   368            335            3949           382            33115          1.6722174e-12
        99   109.9946           38555   368            335            4034           398            33420          1.6945813e-12
       100   112.90647          38928   368            335            4116           411            33698          1.7176335e-12
       101   115.76411          39342   368            336            4220           422            33996          1.7412105e-12
       102   118.71069          39706   368            336            4291           437            34274          1.7653406e-12
       103   121.66664          40118   368            336            4388           462            34564          1.7907304e-12
       104   124.69847          40524   368            336            4496           485            34839          1.8170011e-12
       105   127.76937          40906   368            336            4586           503            35113          1.8440113e-12
       106   130.90587          41313   368            336            4687           525            35397          1.87133e-12  
       107   134.08421          41696   368            336            4769           547            35676          1.8985576e-12
       108   137.31762          42094   368            336            4879           568            35943          1.9257032e-12
       109   140.58333          42498   368            336            4970           590            36234          1.9526374e-12
       110   144.03119          42872   368            336            5067           617            36484          1.9791003e-12
       111   147.43059          43296   368            336            5178           636            36778          2.0058516e-12
       112   150.86628          43676   368            336            5261           670            37041          2.0330031e-12
       113   154.37625          44077   368            336            5358           696            37319          2.0604e-12   
       114   157.94269          44479   368            336            5463           726            37586          2.0884506e-12
       115   161.5817           44860   368            336            5557           756            37843          2.1172765e-12
       116   165.29343          45266   368            336            5641           796            38125          2.1471179e-12
       117   169.05799          45667   368            336            5752           823            38388          2.1779816e-12
       118   172.8753           46055   368            336            5844           849            38658          2.2088555e-12
       119   176.75426          46476   368            336            5965           878            38929          2.2398895e-12
       120   180.81879          46871   368            336            6064           915            39188          2.2706236e-12
       121   184.81189          47277   367            336            6158           956            39460          2.3021554e-12
       122   188.89244          47691   367            336            6281           991            39716          2.3335531e-12
       123   193.05632          48102   367            336            6387           1029           39983          2.3655903e-12
       124   197.29302          48494   367            336            6472           1071           40248          2.3979146e-12
       125   201.59681          48915   367            336            6577           1109           40526          2.4313241e-12
       126   205.98708          49328   367            336            6705           1147           40773          2.465659e-12 
       127   210.44737          49744   367            335            6815           1185           41042          2.5007431e-12
       128   214.96937          50162   367            335            6936           1226           41298          2.5362754e-12
       129   219.60088          50584   367            335            7061           1270           41551          2.5726226e-12
       130   224.44124          51005   367            335            7173           1305           41825          2.6092028e-12
       131   229.24665          51423   367            334            7298           1344           42080          2.6458675e-12
       132   234.14238          51832   367            334            7417           1385           42329          2.6830791e-12
       133   239.11586          52276   367            334            7544           1440           42591          2.7210929e-12
       134   244.17863          52709   367            334            7676           1485           42847          2.7600627e-12
       135   249.30935          53133   367            334            7812           1523           43097          2.8002264e-12
       136   254.54032          53588   367            334            7957           1563           43367          2.8426081e-12
       137   259.84013          54041   367            333            8110           1615           43616          2.8863357e-12
       138   265.22751          54518   367            333            8286           1661           43871          2.9321187e-12
       139   270.70858          54971   367            333            8429           1716           44126          2.9798359e-12
       140   276.45377          55433   367            333            8597           1773           44363          3.0294594e-12
       141   282.1326           55895   367            333            8751           1824           44620          3.0792992e-12
       142   287.8902           56356   367            332            8901           1891           44865          3.1306702e-12
       143   293.72841          56839   367            332            9070           1953           45117          3.182565e-12 
       144   299.66315          57313   367            332            9216           2036           45362          3.2365714e-12
       145   305.74106          57834   366            332            9412           2109           45615          3.2922966e-12
       146   311.87666          58343   366            331            9621           2169           45856          3.3508491e-12
       147   318.11111          58848   365            330            9834           2228           46091          3.4125436e-12
       148   324.48302          59357   364            327            10024          2302           46340          3.4765627e-12
       149   330.94777          59848   364            326            10221          2364           46573          3.5426331e-12
       150   337.70099          60400   364            326            10472          2416           46822          3.6108487e-12
       151   344.43202          60924   364            325            10709          2471           47055          3.6816555e-12
       152   351.31176          61458   364            325            10940          2542           47287          3.7542473e-12
       153   358.41878          62023   364            325            11171          2621           47542          3.8300953e-12
       154   365.63731          62587   364            323            11442          2694           47764          3.9134071e-12
       155   372.98512          63162   363            322            11696          2780           48001          4.003843e-12 
       156   380.48074          63788   362            322            12007          2848           48249          4.1030594e-12
       157   388.18539          64428   362            322            12332          2934           48478          4.210874e-12 
       158   396.06891          65081   362            322            12684          3007           48706          4.3303942e-12
       159   404.09127          65761   362            321            13027          3100           48951          4.4562432e-12
       160   412.5072           66469   361            321            13427          3175           49185          4.5883812e-12
       161   421.01165          67149   361            320            13814          3251           49403          4.7266527e-12
       162   429.65756          67869   361            319            14226          3326           49637          4.8657763e-12
       163   438.55163          68571   361            319            14619          3397           49875          4.9998358e-12
       164   447.59503          69288   360            318            15046          3471           50093          5.1300851e-12
       165   456.80919          70002   360            315            15445          3560           50322          5.2627987e-12
       166   466.23573          70734   360            315            15871          3651           50537          5.403209e-12 
       167   475.81737          71496   360            313            16293          3761           50769          5.5508237e-12
       168   485.57453          72217   360            313            16727          3843           50974          5.6898207e-12
       169   495.45814          73002   360            313            17202          3923           51204          5.8425348e-12
       170   505.74096          73791   360            313            17698          4002           51418          5.9891723e-12
       171   515.90925          74507   360            313            18124          4095           51615          6.1300666e-12
       172   526.20976          75333   359            313            18621          4190           51850          6.2860225e-12
       173   536.66254          76078   359            312            19076          4283           52048          6.4424302e-12
       174   547.24034          76893   358            312            19592          4376           52255          6.6014983e-12
       175   557.85786          77777   357            312            20169          4489           52450          6.7891739e-12
       176   568.57101          78620   357            312            20689          4594           52668          6.9527433e-12
       177   579.33012          79475   355            312            21258          4695           52855          7.1267382e-12
       178   590.21126          80329   354            311            21831          4787           53046          7.3040208e-12
       179   601.2111           81236   353            308            22450          4881           53244          7.4820711e-12
       180   612.39582          82065   352            308            23012          4973           53420          7.6681564e-12
       181   623.4378           82982   352            306            23653          5084           53587          7.8650643e-12
       182   634.57716          83962   351            306            24330          5193           53782          8.0640101e-12
       183   645.80249          84852   351            304            24915          5332           53950          8.270115e-12 
       184   657.07265          85726   351            303            25498          5480           54094          8.4572023e-12
       185   668.44219          86678   351            303            26157          5622           54245          8.6535505e-12
       186   679.90225          87577   351            302            26724          5804           54396          8.8573848e-12
       187   691.44505          88505   350            300            27342          5976           54537          9.0654175e-12
       188   703.08439          89493   350            298            27992          6166           54687          9.2749211e-12
       189   714.82264          90433   348            297            28586          6381           54821          9.4736508e-12
       190   726.86981          91376   347            295            29149          6643           54942          9.6778291e-12
       191   738.79794          92259   347            293            29653          6918           55048          9.8806445e-12
       192   750.85416          93223   347            293            30194          7231           55158          1.0074241e-11
       193   762.97361          94120   347            290            30710          7506           55267          1.0257866e-11
       194   775.15177          95009   347            287            31202          7807           55366          1.0447605e-11
       195   787.4186           95980   347            284            31783          8090           55476          1.0639511e-11
       196   799.72423          96808   346            283            32206          8411           55562          1.0810868e-11
       197   812.1017           97633   346            282            32667          8695           55643          1.0956183e-11
       198   824.54056          98469   341            278            33114          9007           55729          1.1091814e-11
       199   837.04542          99267   338            276            33552          9303           55798          1.1236801e-11
       200   849.87489         100037   336            273            33967          9587           55874          1.1332564e-11
       201   862.49296         100770   333            269            34375          9857           55936          1.1440869e-11
       202   875.20189         101451   330            262            34752          10108          55999          1.1559135e-11
       203   887.988           102161   327            257            35137          10378          56062          1.1633441e-11
       204   900.83862         102860   324            252            35535          10629          56120          1.1729785e-11
       205   913.76288         103566   318            249            35997          10829          56173          1.1821914e-11
       206   926.77513         104236   311            245            36387          11063          56230          1.1888714e-11
       207   939.87906         104885   307            237            36803          11271          56267          1.1948758e-11
       208   953.06136         105398   298            233            37085          11471          56311          1.2006306e-11
       209   966.30307         105975   291            226            37398          11711          56349          1.2047554e-11
       210   979.87733         106575   284            222            37744          11938          56387          1.2075805e-11
       211   993.25269         107158   282            216            38055          12180          56425          1.2090728e-11
       212   1006.676          107709   278            208            38312          12446          56465          1.2131515e-11
       213   1020.0851         108172   269            201            38462          12751          56489          1.2162998e-11
       214   1033.5836         108729   263            193            38649          13083          56541          1.2181506e-11
       215   1047.1696         109199   255            188            38758          13412          56586          1.2194665e-11
       216   1060.823          109776   244            173            38961          13775          56623          1.2196833e-11
       217   1074.5332         110192   237            171            39017          14100          56667          1.2186912e-11
       218   1088.358          110711   224            165            39187          14435          56700          1.2219991e-11
       219   1102.2113         111131   211            152            39245          14800          56723          1.222655e-11 
       220   1116.3992         111596   201            148            39343          15153          56751          1.2236657e-11
       221   1130.3943         112047   189            144            39449          15495          56770          1.221304e-11 
       222   1144.4576         112477   181            138            39518          15838          56802          1.2212403e-11
       223   1158.5678         112925   174            123            39616          16185          56827          1.2196268e-11
       224   1172.8164         113338   161            112            39728          16472          56865          1.2207134e-11
       225   1187.0521         113788   155            102            39833          16795          56903          1.2197355e-11
       226   1201.3983         114257   149            95             39961          17114          56938          1.2203849e-11
       227   1215.8116         114652   136            93             40016          17441          56966          1.2182172e-11
       228   1230.2956         115052   126            86             40068          17769          57003          1.2171404e-11
       229   1244.8792         115497   113            82             40205          18073          57024          1.2182885e-11
       230   1259.7417         115921   105            76             40282          18403          57055          1.2171984e-11
       231   1274.3314         116269   96             69             40284          18740          57080          1.2156011e-11
       232   1289.0099         116688   86             67             40373          19048          57114          1.2139418e-11
       233   1303.7711         117093   81             61             40401          19402          57148          1.211564e-11 
       234   1318.5499         117495   75             57             40453          19740          57170          1.211979e-11 
       235   1333.3942         117822   71             54             40437          20059          57201          1.2103868e-11
       236   1348.2654         118252   64             53             40514          20386          57235          1.210788e-11 
       237   1363.1928         118667   62             49             40604          20691          57261          1.2109205e-11
       238   1378.2057         118996   56             45             40612          21000          57283          1.2089609e-11
       239   1393.3158         119454   51             42             40707          21342          57312          1.2093537e-11
       240   1408.7607         119871   48             38             40785          21661          57339          1.2083625e-11
       241   1423.9895         120263   46             37             40798          22017          57365          1.2100263e-11
       242   1439.2858         120594   46             35             40756          22364          57393          1.2098538e-11
       243   1454.586          120987   45             31             40801          22696          57414          1.2088319e-11
       244   1469.9583         121437   43             28             40887          23038          57441          1.2097048e-11
       245   1485.4399         121787   41             26             40890          23361          57469          1.2072491e-11
       246   1501.0266         122192   38             25             40896          23744          57489          1.2083603e-11
       247   1516.6127         122472   38             25             40797          24097          57515          1.2071038e-11
       248   1532.2651         122896   35             25             40804          24489          57543          1.2088466e-11
       249   1547.9515         123215   33             24             40706          24888          57564          1.2058333e-11
       250   1563.9768         123593   31             22             40649          25307          57584          1.2064824e-11
       251   1579.8111         124021   31             22             40617          25743          57608          1.207434e-11 
       252   1595.7573         124329   31             21             40465          26176          57636          1.2069707e-11
       253   1611.6989         124666   31             20             40338          26625          57652          1.2066432e-11
       254   1627.6473         125005   30             20             40207          27069          57679          1.2054248e-11
       255   1643.6812         125373   29             20             40090          27533          57701          1.2066504e-11
       256   1659.7763         125797   28             20             40016          28006          57727          1.2082275e-11
       257   1675.9483         126136   26             20             39895          28449          57746          1.2103182e-11
       258   1692.1808         126500   26             20             39741          28943          57770          1.2106157e-11
       259   1708.4599         126823   26             20             39592          29394          57791          1.2083208e-11
       260   1725.0662         127201   26             20             39465          29875          57815          1.2097987e-11
       261   1741.4168         127555   26             19             39276          30398          57836          1.2100308e-11
       262   1757.9029         127849   26             19             39045          30900          57859          1.2092662e-11
       263   1774.3651         128256   26             19             38884          31445          57882          1.2121026e-11
       264   1790.9584         128627   26             19             38742          31936          57904          1.2114139e-11
       265   1807.4513         128954   26             19             38569          32415          57925          1.2128842e-11
       266   1824.1209         129294   26             19             38420          32878          57951          1.2132357e-11
       267   1840.7296         129658   26             19             38308          33334          57971          1.2142921e-11
       268   1857.3702         130033   26             19             38214          33777          57997          1.2147804e-11
       269   1874.1846         130290   25             17             37991          34242          58015          1.2136753e-11
       270   1891.3738         130668   24             17             37884          34702          58041          1.2149255e-11
       271   1908.3176         130993   24             17             37714          35179          58059          1.215781e-11 
       272   1925.2181         131328   24             17             37617          35587          58083          1.2168848e-11
       273   1942.2431         131738   23             17             37572          36023          58103          1.2195116e-11
       274   1959.2558         132042   23             17             37435          36444          58123          1.2194667e-11
       275   1976.3184         132347   23             17             37297          36861          58149          1.2193003e-11
       276   1993.3366         132719   23             17             37254          37259          58166          1.2211893e-11
       277   2010.4337         133024   23             17             37157          37636          58191          1.223264e-11 
       278   2027.8098         133332   23             17             37041          38038          58213          1.2203101e-11
       279   2045.1037         133671   23             17             36958          38441          58232          1.2235661e-11
       280   2062.7347         134070   23             17             36946          38828          58256          1.2254022e-11
       281   2080.1548         134374   23             17             36863          39198          58273          1.2258885e-11
       282   2097.5636         134694   23             17             36773          39583          58298          1.2268958e-11
       283   2115.1143         135035   23             17             36723          39956          58316          1.2271645e-11
       284   2132.6673         135349   23             17             36678          40293          58338          1.2283541e-11
       285   2150.2408         135630   23             17             36563          40667          58360          1.2277214e-11
       286   2167.9307         136025   23             17             36586          41020          58379          1.2290381e-11
       287   2185.6346         136328   23             17             36490          41394          58404          1.2300599e-11
       288   2203.4549         136605   23             17             36423          41719          58423          1.2296341e-11
       289   2221.287          136904   23             17             36320          42097          58447          1.2316427e-11
       290   2239.4696         137261   23             17             36314          42440          58467          1.2334215e-11
       291   2257.4506         137594   23             17             36289          42778          58487          1.2341716e-11
       292   2275.4203         137931   23             17             36265          43113          58513          1.2364906e-11
       293   2293.4711         138282   23             17             36265          43442          58535          1.2373098e-11
       294   2311.5563         138608   23             17             36223          43791          58554          1.2379349e-11
       295   2329.7184         138865   23             17             36130          44114          58581          1.2380264e-11
       296   2347.8495         139162   23             17             36127          44400          58595          1.2377703e-11
       297   2366.1053         139546   23             17             36134          44750          58622          1.2395914e-11
       298   2384.3506         139913   23             17             36146          45087          58640          1.2425261e-11
       299   2402.7308         140219   23             17             36086          45429          58664          1.2458369e-11
       300   2421.4798         140563   23             17             36056          45782          58685          1.2475357e-11
       301   2439.9609         140892   23             17             36008          46134          58710          1.2468234e-11
       302   2458.589          141254   23             17             36006          46478          58730          1.2494695e-11
       303   2477.326          141550   23             17             35947          46812          58751          1.2485768e-11
       304   2496.2621         141847   22             17             35913          47122          58773          1.2481501e-11
       305   2515.1097         142199   22             17             35951          47417          58792          1.25272e-11  
       306   2533.9515         142464   22             17             35881          47725          58819          1.2532414e-11
       307   2552.8854         142823   22             17             35906          48042          58836          1.25422e-11  
       308   2571.8236         143160   22             17             35912          48346          58863          1.2546441e-11
       309   2590.824          143501   22             17             35912          48669          58881          1.2580219e-11
       310   2610.2007         143719   22             17             35794          48982          58904          1.2563807e-11
       311   2629.2961         143997   22             17             35756          49277          58925          1.2565247e-11
       312   2648.4504         144398   22             17             35838          49573          58948          1.2590782e-11
       313   2667.6913         144755   22             17             35906          49844          58966          1.2612953e-11
       314   2686.9952         145052   22             17             35891          50133          58989          1.2600104e-11
       315   2706.3394         145274   22             17             35759          50469          59007          1.260273e-11 
       316   2725.7455         145616   22             17             35768          50774          59035          1.2614373e-11
       317   2745.2318         145968   22             17             35790          51084          59055          1.2642459e-11
       318   2764.7912         146257   22             17             35760          51383          59075          1.2637643e-11
       319   2784.4208         146600   22             17             35722          51741          59098          1.2639122e-11
       320   2804.4371         146920   22             17             35718          52043          59120          1.2655434e-11
Loop time of 2804.44 on 16 procs for 320 steps with 146920 atoms

98.1% CPU use with 16 MPI tasks x 1 OpenMP threads

MPI task timing breakdown:
Section |  min time  |  avg time  |  max time  |%varavg| %total
---------------------------------------------------------------
Pair    | 689.18     | 791.9      | 1036.4     | 322.2 | 28.24
Neigh   | 428.65     | 531.81     | 843.23     | 526.7 | 18.96
Comm    | 307.25     | 382.53     | 450.5      | 243.8 | 13.64
Output  | 8.8671     | 8.8673     | 8.8687     |   0.0 |  0.32
Modify  | 452.91     | 1075.5     | 1307.6     | 742.4 | 38.35
Other   |            | 13.87      |            |       |  0.49

Nlocal:         9182.5 ave       13426 max        7758 min
Histogram: 8 3 0 2 0 1 0 0 0 2
Nghost:           7165 ave        9952 max        5982 min
Histogram: 7 1 2 2 0 1 1 1 0 1
Neighs:        88658.6 ave      103567 max       82186 min
Histogram: 4 4 2 1 1 2 0 1 0 1

Total # of neighbors = 1418537
Ave neighs/atom = 9.6551661
Neighbor list builds = 27869
Dangerous builds = 27549

Total wall time: 0:46:44
