LAMMPS (23 Jun 2022 - Update 4)
  using 1 OpenMP thread(s) per MPI task
package omp 0
using multi-threaded neighbor list subroutines
#-----------------------------------------------------------------------------#
#                NUFEB Simulation: Heterotrophic Biofilm Growth               #
#-----------------------------------------------------------------------------#


#-----------------------------System Settings---------------------------------#

units si                                    # using si units (m, s, kg)
atom_style      coccus                      # using nufeb coccus atom style
atom_modify     map array sort 10 0         # map array - find atoms using indices
		                            # sort every 10

boundary        pp pp ff                    # periodic boundaries in x and y
                                            # fixed boundary in z

newton          off                         # forces between local and ghost
                                            # atoms are computed in each
					     # processor without communication

processors      * * 1                       # processor grid

comm_modify     vel yes                     # communicate velocities for ghost atoms

read_data       atom_ch.in	             # read atom.in file which defines domain size
Reading data file ...
  orthogonal box = (0 0 0) to (6e-05 6e-05 6e-05)
  4 by 4 by 1 MPI processor grid
  reading atoms ...
  150 atoms
  read_data CPU = 0.031 seconds
                                            # and initial atoms


#--------------------Microbes and Functional Groups-------------------------#

group           CROSS1   type 1               # assign type 1,2 atoms to CROSS group
50 atoms in group CROSS1
group           CROSS2   type 2
50 atoms in group CROSS2
group		CHEATER  type 3
50 atoms in group CHEATER
group           dead     type 4
0 atoms in group dead
group		EPS	 type 5
0 atoms in group EPS

neighbor        5e-7 bin                   # setting neighbour skin distance and style

neigh_modify    check yes                  # rebuild neighbour list if any atom
                                           # had moved more than half the skin distance


#--------------------------Mesh Grid and Substrates--------------------------#

# defining grid sytle, substrate names, and grid size
grid_style      nufeb/chemostat 3 sub metab1 metab2 5e-6

# set diffusion boundary conditions and initial concentrations (liquid:kg/m3)
grid_modify     set sub      pp pp nd  1.8e-4
No /omp style for force computation currently active
grid_modify     set metab1   pp pp nd  1e-4
No /omp style for force computation currently active
grid_modify     set metab2   pp pp nd  1e-4
No /omp style for force computation currently active


#--------------------------Biological Processes-------------------------------#

# heterotrophs growth
fix growth_cross1 CROSS1 nufeb/growth/cross1 sub 3.5e-5 metab2 4e-3 metab1 growth 0.009 yield 0.6 decay 2.6e-6 metab1_exp 20 epsyield 0.12 epsdens 30

fix growth_cross2 CROSS2 nufeb/growth/cross2 sub 3.5e-5 metab1 4e-3 metab2 growth 0.009 yield 0.6 decay 2.6e-6 metab2_exp 20 epsyield 0.12 epsdens 30

fix growth_cheater CHEATER nufeb/growth/cheater sub 3.5e-5 metab1 1e-3 metab2 1e-3 growth 0.009 yield 0.6 decay 2.6e-6

# heterotrophs division, division diameter: 1.36e-6
fix div1 CROSS1 nufeb/division/coccus 1.36e-6 728
fix div2 CROSS2 nufeb/division/coccus 1.36e-6 2606
fix div3 CHEATER nufeb/division/coccus 1.36e-6 5734

fix death1 CROSS1 nufeb/death/diameter dead 5.43e-7
fix death2 CROSS2 nufeb/death/diameter dead 5.43e-7
fix death3 CHEATER nufeb/death/diameter dead 5.43e-7

# EPS secretion from heterotrophs
fix eps1 CROSS1 nufeb/eps_secretion 5 EPS 1.1 30 10112
fix eps2 CROSS2 nufeb/eps_secretion 5 EPS 1.1 30 15740

#---------------------------Physical Processes--------------------------------#

pair_style  gran/hooke/history 1e-4 NULL 1e-5 NULL 0.0 0    # pairwise interaction
pair_coeff  * *                                             # between atoms

# pairwise interaction between z-wall and atoms
fix wall all wall/gran hooke/history 1e-3 NULL 1e-4 NULL 0 0 zplane 0.0 1e-04

fix vis all viscous 1e-5                                    # viscous damping force

fix grav all gravity 9.81 vector 0.0 0.0 -1.0

fix nve all nve/limit 1e-7                                  # NVE integration with
                                                            # maximum distance limit


#---------------------------Post-Physical Processes---------------------------#

fix coeff_sub all nufeb/diffusion_coeff sub ratio 0.8       # defining diffusion coeff in the biofilm
fix coeff_metab1 all nufeb/diffusion_coeff metab1 ratio 0.8    # region is 80% of the value in liquid
fix coeff_metab2 all nufeb/diffusion_coeff metab2 ratio 0.8

#---------------------------Chemical Processes---------------------------------#

fix diff_sub all nufeb/diffusion_reaction sub 1e-9        # diffusion reaction for updating
fix diff_metab1 all nufeb/diffusion_reaction metab1 4e-9     # distribusion of substrate concentration
fix diff_metab2 all nufeb/diffusion_reaction metab2 4e-9

#--------------------------Computations and Outputs----------------------------#

variable mass equal "mass(all)"                             # total mass
variable ncross1 equal "count(CROSS1)"                      # total # of CROSS1
variable ncross2 equal "count(CROSS2)"                      # total # of CROSS2
variable ncheater equal "count(CHEATER)"
variable ndead equal "count(dead)"
variable neps equal "count(EPS)"

shell mkdir vtk_EPS_ch                                            # dump vtk files to /vtk folder
dump du1 all vtk 10 vtk_EPS_ch/dump*.vtu id type diameter         # require build NUFEB with vtk option
dump du2 all grid/vtk 10 vtk_EPS_ch/dump_%_*.vti con rea den gro

#dump du3 all movie 10 movie.avi type diameter view 80 60    # dump video
#dump_modify du3 acolor 1 blue acolor 2 lightgrey framerate 10


                                                            # dump hdf5 files to /hdf5 folder
#shell mkdir hdf5                                           # require build NUFEB with hdf5 option
#dump du3 all nufeb/hdf5 10 dump.h5 id type x y z vx vy vz fx fy fz radius conc reac

thermo_style custom step cpu atoms v_ncross1 v_ncross2 v_ncheater v_ndead v_neps v_mass     # screen and log outputs
thermo 1
thermo_modify   lost ignore

#-----------------------------------Run----------------------------------------#

# issue run command, define timesteps for physical (pairdt) and chemical (diffdt) processes
run_style nufeb diffdt 1e-4 difftol 1e-6 pairdt 1e-2 pairtol 1 pairmax 1000 diffmax 5000

timestep 12000                                               # define biological timesteps (1000s)

run 320                                                    # growing biofilm for 900x1000s
Generated 0 of 6 mixed pair_coeff terms from geometric mixing rule
Last active /omp style is pair_style gran/hooke/history/omp
Neighbor list info ...
  update every 1 steps, delay 10 steps, check yes
  max neighbors/atom: 2000, page size: 100000
  master list distance cutoff = 2.49e-06
  ghost atom cutoff = 2.49e-06
  binsize = 1.245e-06, bins = 49 49 49
  1 neighbor lists, perpetual/occasional/extra = 1 0 0
  (1) pair gran/hooke/history/omp, perpetual
      attributes: half, newton off, size, history, omp
      pair build: half/size/bin/newtoff/omp
      stencil: full/bin/3d
      bin: standard
Per MPI rank memory allocation (min/avg/max) = 11.02 | 11.02 | 11.02 Mbytes
   Step          CPU          Atoms      v_ncross1      v_ncross2      v_ncheater      v_ndead         v_neps         v_mass    
         0   0                    150   50             50             50             0              0              1.3295396e-13
         1   0.38555622           432   90             85             86             0              171            1.7274506e-13
         2   0.76496495           796   120            126            136            0              414            1.957783e-13 
         3   1.0925841           1116   129            142            178            0              667            2.1477538e-13
         4   1.3937809           1429   139            152            193            0              945            2.3267725e-13
         5   1.6452628           1740   142            158            217            0              1223           2.4995255e-13
         6   1.8094093           2059   145            166            236            0              1512           2.6691822e-13
         7   2.0139226           2402   158            176            247            0              1821           2.8363013e-13
         8   2.1765136           2756   168            185            262            0              2141           3.0060244e-13
         9   2.3235698           3124   172            193            285            0              2474           3.1674001e-13
        10   2.4805271           3493   179            197            310            0              2807           3.3235416e-13
        11   2.6030347           3863   182            207            325            0              3149           3.4766952e-13
        12   2.7345954           4245   187            214            338            0              3506           3.6274798e-13
        13   2.8482174           4635   192            219            359            0              3865           3.7741047e-13
        14   2.948861            5021   196            223            376            0              4226           3.916409e-13 
        15   3.1038736           5419   198            231            392            0              4598           4.0566057e-13
        16   3.2123611           5813   202            240            417            0              4954           4.1910017e-13
        17   3.30971             6214   205            241            430            0              5338           4.3239214e-13
        18   3.4390075           6594   214            244            448            0              5688           4.4478479e-13
        19   3.5071782           6984   223            247            463            0              6051           4.5647607e-13
        20   3.6326772           7392   227            254            475            0              6436           4.6770892e-13
        21   3.8236503           7797   231            262            490            0              6814           4.7862788e-13
        22   3.9395418           8172   234            264            500            0              7174           4.8928021e-13
        23   4.0683748           8581   239            266            514            0              7562           4.9990103e-13
        24   4.1383094           8973   247            269            526            0              7931           5.0963885e-13
        25   4.2247488           9384   252            272            542            0              8318           5.1934931e-13
        26   4.3164268           9758   255            276            553            0              8674           5.2849326e-13
        27   4.4030403          10180   259            279            566            0              9076           5.3772499e-13
        28   4.4984755          10571   264            283            577            0              9447           5.4647971e-13
        29   4.5858116          10953   265            285            583            0              9820           5.5508341e-13
        30   4.7485711          11368   272            287            595            0              10214          5.6347383e-13
        31   4.8783493          11761   273            289            612            0              10587          5.7164053e-13
        32   4.9851714          12174   276            296            625            0              10977          5.7958086e-13
        33   5.0924067          12555   282            297            632            0              11344          5.8720674e-13
        34   5.2346723          12960   285            302            644            0              11729          5.9484338e-13
        35   5.3958208          13375   286            305            653            0              12131          6.0232956e-13
        36   5.5382488          13769   289            309            664            0              12507          6.0907385e-13
        37   5.7378302          14197   294            310            674            0              12919          6.1607128e-13
        38   5.9648802          14604   296            315            687            0              13306          6.2270223e-13
        39   6.4026613          15018   300            317            698            0              13703          6.2914536e-13
        40   7.1795967          15433   303            319            702            0              14109          6.3542336e-13
        41   7.6126237          15824   304            320            710            0              14490          6.4108434e-13
        42   8.3522646          16254   307            324            718            0              14905          6.4640518e-13
        43   9.2023021          16644   310            324            724            0              15286          6.5106878e-13
        44   9.869302           17049   310            325            730            0              15684          6.5592069e-13
        45   10.794191          17462   314            328            736            0              16084          6.6028188e-13
        46   11.697352          17865   317            334            739            0              16475          6.6413105e-13
        47   12.646679          18291   319            334            746            0              16892          6.6810257e-13
        48   13.601369          18721   328            336            753            0              17304          6.7177343e-13
        49   14.557939          19142   329            337            758            0              17718          6.7547084e-13
        50   15.722318          19556   331            337            769            0              18119          6.7910277e-13
        51   16.729846          19973   333            339            771            0              18530          6.827977e-13 
        52   17.755165          20405   335            342            774            0              18954          6.8626685e-13
        53   18.804184          20801   337            342            778            0              19344          6.8953918e-13
        54   19.870187          21217   337            345            783            0              19752          6.9289334e-13
        55   20.986478          21622   340            346            786            0              20150          6.9611017e-13
        56   22.101532          22063   341            351            792            0              20579          6.993078e-13 
        57   23.233145          22474   345            352            796            0              20981          7.0233404e-13
        58   24.396296          22903   346            354            800            0              21403          7.0530695e-13
        59   25.588615          23331   346            354            804            1              21826          7.0837728e-13
        60   26.874819          23752   349            357            806            1              22239          7.1131742e-13
        61   28.144707          24174   350            358            809            2              22655          7.1411209e-13
        62   29.458349          24601   350            360            812            2              23077          7.1678633e-13
        63   30.744556          25018   351            361            815            3              23488          7.1942219e-13
        64   32.059944          25451   356            361            819            3              23912          7.2216452e-13
        65   33.390968          25877   356            363            822            4              24332          7.2494433e-13
        66   34.741078          26315   359            364            825            9              24758          7.2785551e-13
        67   36.122329          26720   359            364            827            10             25160          7.3059466e-13
        68   37.531195          27187   363            365            830            12             25617          7.334823e-13 
        69   38.986064          27590   367            366            831            14             26012          7.3599084e-13
        70   40.522053          28035   368            367            831            16             26453          7.385135e-13 
        71   42.01431           28458   370            367            832            18             26871          7.4106653e-13
        72   43.57543           28906   373            368            833            20             27312          7.4351562e-13
        73   45.141919          29305   374            370            831            26             27704          7.4600059e-13
        74   46.767676          29773   375            371            830            30             28167          7.4885272e-13
        75   48.393117          30178   379            372            828            34             28565          7.516119e-13 
        76   50.081562          30649   381            376            835            37             29020          7.5474762e-13
        77   51.80896           31064   381            378            833            43             29429          7.5778723e-13
        78   53.568205          31530   383            379            837            50             29881          7.615739e-13 
        79   55.354441          31933   384            379            835            56             30279          7.6552871e-13
        80   57.282872          32407   386            379            839            61             30742          7.6985852e-13
        81   59.277341          32824   388            379            843            66             31148          7.7418485e-13
        82   61.216391          33280   391            379            846            70             31594          7.7910283e-13
        83   63.16493           33696   393            379            852            78             31994          7.8385072e-13
        84   65.180811          34153   394            380            855            84             32440          7.8902093e-13
        85   67.232909          34583   395            380            861            91             32856          7.9437984e-13
        86   69.324738          35024   395            381            861            105            33282          8.0027681e-13
        87   71.44248           35470   396            382            875            109            33708          8.0671018e-13
        88   73.593451          35915   397            383            889            111            34135          8.135428e-13 
        89   75.829172          36347   397            383            904            117            34546          8.2058271e-13
        90   78.210294          36786   397            383            917            123            34966          8.2830221e-13
        91   80.546563          37219   397            384            933            129            35376          8.3664266e-13
        92   82.89155           37667   398            384            958            133            35794          8.4544901e-13
        93   85.289966          38091   398            384            973            137            36199          8.5473314e-13
        94   87.73951           38537   401            385            991            144            36616          8.6488988e-13
        95   90.331188          38971   403            385            1016           149            37018          8.7541199e-13
        96   92.897034          39417   403            385            1054           152            37423          8.8739945e-13
        97   95.5232            39844   403            386            1084           158            37813          8.9994606e-13
        98   98.185265          40302   404            389            1123           162            38224          9.1347575e-13
        99   100.90934          40727   404            390            1158           167            38608          9.2758618e-13
       100   103.79755          41150   404            390            1193           171            38992          9.4251371e-13
       101   106.66438          41595   404            390            1246           175            39380          9.5841748e-13
       102   109.44506          42010   405            391            1290           176            39748          9.7540883e-13
       103   112.31393          42435   405            391            1332           182            40125          9.9255804e-13
       104   115.20736          42857   406            391            1376           189            40495          1.0102052e-12
       105   118.20242          43272   406            391            1425           190            40860          1.0280687e-12
       106   121.24853          43696   406            393            1491           193            41213          1.0467542e-12
       107   124.31279          44124   406            394            1539           201            41584          1.0659768e-12
       108   127.37876          44554   406            394            1598           206            41950          1.0853974e-12
       109   130.5015           44940   406            394            1645           215            42280          1.1046725e-12
       110   133.78534          45347   406            395            1693           222            42631          1.1241038e-12
       111   136.99149          45767   406            395            1742           236            42988          1.1435019e-12
       112   140.29914          46155   406            395            1786           248            43320          1.1628852e-12
       113   143.63071          46536   407            395            1841           253            43640          1.1822543e-12
       114   146.98265          46957   407            396            1895           258            44001          1.2018618e-12
       115   150.43435          47341   408            398            1948           274            44313          1.2209987e-12
       116   153.89798          47739   409            398            2009           280            44643          1.2405205e-12
       117   157.41446          48130   410            398            2062           298            44962          1.2596526e-12
       118   161.00246          48513   412            399            2121           304            45277          1.2786406e-12
       119   164.60741          48889   414            399            2175           309            45592          1.2974839e-12
       120   168.42953          49264   417            399            2232           322            45894          1.3161337e-12
       121   172.20883          49645   419            400            2291           330            46205          1.3347843e-12
       122   175.96063          50030   420            400            2353           344            46513          1.3533234e-12
       123   179.78458          50385   422            401            2406           353            46803          1.3710009e-12
       124   183.68119          50751   425            402            2453           366            47105          1.3884862e-12
       125   187.61462          51114   429            403            2506           380            47396          1.4056623e-12
       126   191.57713          51483   432            404            2557           391            47699          1.422729e-12 
       127   195.63896          51849   433            405            2602           409            48000          1.4389294e-12
       128   199.7482           52216   435            406            2646           428            48301          1.4545632e-12
       129   203.91192          52597   439            406            2695           445            48612          1.4703483e-12
       130   208.25594          52965   444            408            2742           459            48912          1.4854161e-12
       131   212.54677          53345   447            408            2793           479            49218          1.49992e-12  
       132   216.92306          53719   448            410            2835           506            49520          1.5143561e-12
       133   221.3263           54102   448            411            2892           515            49836          1.5287292e-12
       134   225.78926          54477   449            411            2933           533            50151          1.5427602e-12
       135   230.33467          54869   452            414            2968           560            50475          1.5558894e-12
       136   234.92981          55253   453            416            3026           575            50783          1.5687268e-12
       137   239.63181          55633   453            416            3064           596            51104          1.5812163e-12
       138   244.41648          56027   454            418            3115           610            51430          1.5930059e-12
       139   249.3122           56431   454            419            3175           623            51760          1.6055389e-12
       140   254.4022           56814   456            420            3219           636            52083          1.6179506e-12
       141   259.41492          57246   457            420            3274           661            52434          1.62974e-12  
       142   264.48302          57673   459            421            3319           682            52792          1.6413303e-12
       143   269.65424          58094   460            421            3364           697            53152          1.6530973e-12
       144   274.88679          58515   461            422            3409           713            53510          1.6646672e-12
       145   280.22359          58920   461            422            3464           725            53848          1.6765883e-12
       146   285.64752          59372   461            422            3534           733            54222          1.6882425e-12
       147   291.20082          59815   462            424            3596           748            54585          1.7002919e-12
       148   296.85257          60254   462            425            3656           763            54948          1.7129775e-12
       149   302.61695          60715   462            425            3709           774            55345          1.7261934e-12
       150   308.61616          61171   462            426            3788           795            55700          1.7405373e-12
       151   314.59383          61648   463            426            3840           818            56101          1.7554051e-12
       152   320.66205          62117   463            426            3921           844            56463          1.7712015e-12
       153   326.81144          62604   464            426            3987           869            56858          1.7883641e-12
       154   333.06761          63057   464            426            4050           886            57231          1.8062739e-12
       155   339.41406          63530   465            427            4129           905            57604          1.8247667e-12
       156   345.83252          64035   465            427            4234           917            57992          1.8442267e-12
       157   352.36918          64482   465            427            4314           934            58342          1.8639259e-12
       158   358.95755          64992   465            427            4379           965            58756          1.8840977e-12
       159   365.6796           65437   465            428            4448           995            59101          1.9039219e-12
       160   372.94281          65950   465            428            4533           1025           59499          1.9245972e-12
       161   379.79529          66425   465            428            4607           1055           59870          1.945301e-12 
       162   386.82202          66892   465            428            4676           1081           60242          1.9659311e-12
       163   393.90093          67357   465            428            4750           1108           60606          1.9871231e-12
       164   401.05785          67882   465            428            4866           1134           60989          2.0094749e-12
       165   408.38363          68356   465            428            4943           1160           61360          2.0319485e-12
       166   415.76136          68819   465            429            5024           1195           61706          2.0555108e-12
       167   423.19902          69313   465            429            5115           1217           62087          2.0801102e-12
       168   430.76486          69796   465            429            5208           1252           62442          2.1054582e-12
       169   438.4207           70280   465            429            5308           1286           62792          2.1313932e-12
       170   446.3363           70755   465            428            5371           1334           63157          2.1576662e-12
       171   454.1865           71236   465            428            5454           1373           63516          2.1847149e-12
       172   462.13745          71721   465            428            5543           1418           63867          2.2114559e-12
       173   470.19296          72199   465            428            5625           1469           64212          2.2383232e-12
       174   478.32768          72653   465            428            5701           1509           64550          2.2654181e-12
       175   486.51785          73131   464            428            5803           1550           64886          2.29243e-12  
       176   494.80603          73633   464            428            5901           1591           65249          2.3192046e-12
       177   503.20457          74095   463            428            5989           1625           65590          2.3461016e-12
       178   511.72869          74547   463            427            6056           1672           65929          2.3736381e-12
       179   520.3593           75024   461            427            6169           1700           66267          2.4015774e-12
       180   529.26348          75516   461            427            6272           1741           66615          2.4311669e-12
       181   538.05363          75979   460            426            6370           1770           66953          2.4617559e-12
       182   546.95872          76461   459            425            6494           1805           67278          2.4930323e-12
       183   555.97136          76955   459            424            6603           1842           67627          2.5250405e-12
       184   565.06142          77427   459            424            6726           1876           67942          2.5578759e-12
       185   574.25258          77901   459            423            6830           1919           68270          2.5905547e-12
       186   583.53701          78386   459            423            6946           1957           68601          2.6231636e-12
       187   592.94368          78871   459            422            7068           1999           68923          2.6561255e-12
       188   602.42872          79324   459            422            7171           2036           69236          2.6892322e-12
       189   612.00946          79834   459            422            7306           2073           69574          2.722004e-12 
       190   621.8819           80299   458            422            7404           2131           69884          2.7548303e-12
       191   631.6955           80773   458            422            7490           2178           70225          2.7881084e-12
       192   641.60555          81242   456            422            7570           2258           70536          2.8212565e-12
       193   651.61037          81735   456            422            7689           2310           70858          2.8552941e-12
       194   661.74116          82219   456            420            7790           2364           71189          2.8899387e-12
       195   671.99152          82693   456            420            7911           2424           71482          2.9263263e-12
       196   682.30046          83186   456            420            8030           2486           71794          2.9646827e-12
       197   692.69486          83698   456            419            8154           2557           72112          3.0047995e-12
       198   703.18919          84183   456            418            8267           2635           72407          3.0459385e-12
       199   713.73071          84694   456            418            8393           2701           72726          3.0880594e-12
       200   724.5197           85195   455            418            8515           2781           73026          3.1310536e-12
       201   735.1983           85674   455            417            8631           2852           73319          3.1746934e-12
       202   745.96841          86176   454            417            8748           2930           73627          3.2182685e-12
       203   756.85183          86662   453            417            8869           3007           73916          3.2627482e-12
       204   767.83655          87204   451            416            9006           3106           74225          3.3092004e-12
       205   778.93351          87704   450            414            9145           3202           74493          3.3568589e-12
       206   790.16353          88242   447            414            9292           3294           74795          3.406068e-12 
       207   801.50709          88758   446            413            9438           3383           75078          3.4577145e-12
       208   812.92476          89249   446            413            9551           3484           75355          3.5111594e-12
       209   824.4788           89794   446            413            9726           3580           75629          3.5667489e-12
       210   836.33495          90337   445            411            9894           3662           75925          3.624421e-12 
       211   848.11939          90896   444            409            10097          3749           76197          3.6831941e-12
       212   859.92984          91424   444            406            10274          3828           76472          3.7423728e-12
       213   871.77538          91945   443            404            10460          3910           76728          3.8015749e-12
       214   883.7152           92518   443            404            10673          3986           77012          3.8623916e-12
       215   895.7385           93089   443            403            10887          4058           77298          3.9254455e-12
       216   907.90476          93582   443            402            11071          4140           77526          3.9911893e-12
       217   920.13626          94171   442            401            11286          4215           77827          4.0622555e-12
       218   932.50697          94773   442            401            11556          4283           78091          4.1369758e-12
       219   944.99739          95363   441            401            11822          4360           78339          4.2153493e-12
       220   957.82893          95960   441            400            12067          4440           78612          4.2967903e-12
       221   970.57231          96568   438            398            12342          4529           78861          4.3814486e-12
       222   983.48072          97163   435            397            12587          4616           79128          4.4688976e-12
       223   996.50244          97800   433            396            12879          4706           79386          4.5618952e-12
       224   1009.6656          98438   431            395            13194          4780           79638          4.661096e-12 
       225   1022.9983          99123   427            393            13552          4853           79898          4.767735e-12 
       226   1036.4835          99803   425            391            13896          4944           80147          4.8854869e-12
       227   1050.1193         100519   421            389            14274          5046           80389          5.0144536e-12
       228   1063.9941         101225   420            388            14661          5141           80615          5.1538605e-12
       229   1078.0688         102005   418            388            15091          5224           80884          5.3041663e-12
       230   1092.5832         102782   416            387            15558          5305           81116          5.457502e-12 
       231   1107.1415         103562   415            385            16010          5405           81347          5.6189433e-12
       232   1121.8647         104378   414            382            16473          5510           81599          5.7806531e-12
       233   1136.7368         105152   411            381            16941          5600           81819          5.9368114e-12
       234   1151.7954         105990   409            376            17439          5693           82073          6.1043463e-12
       235   1166.9851         106831   407            376            17985          5780           82283          6.2823872e-12
       236   1182.3648         107715   405            374            18555          5865           82516          6.4615851e-12
       237   1197.9381         108596   403            369            19141          5944           82739          6.6598276e-12
       238   1213.6857         109535   402            366            19772          6029           82966          6.861798e-12 
       239   1229.4546         110485   398            359            20438          6127           83163          7.0675963e-12
       240   1245.6008         111435   398            356            21065          6233           83383          7.275855e-12 
       241   1261.6779         112393   395            353            21729          6333           83583          7.5013978e-12
       242   1277.8596         113391   394            349            22431          6421           83796          7.7243789e-12
       243   1294.2443         114393   391            346            23137          6535           83984          7.9482876e-12
       244   1310.7509         115416   386            343            23862          6650           84175          8.1854692e-12
       245   1327.3316         116458   385            342            24606          6776           84349          8.4216143e-12
       246   1344.008          117472   381            341            25322          6892           84536          8.6424268e-12
       247   1360.7745         118475   377            333            26061          7007           84697          8.8711946e-12
       248   1377.6433         119481   376            328            26760          7161           84856          9.0765911e-12
       249   1394.6401         120507   373            326            27479          7321           85008          9.318151e-12 
       250   1411.9776         121556   367            323            28222          7483           85161          9.5528581e-12
       251   1429.183          122627   363            317            28986          7661           85300          9.7829196e-12
       252   1446.4746         123625   353            311            29636          7901           85424          1.0001793e-11
       253   1463.8159         124660   343            308            30305          8166           85538          1.0225354e-11
       254   1481.2516         125633   335            300            30901          8457           85640          1.0435039e-11
       255   1498.8064         126654   332            297            31545          8716           85764          1.0646229e-11
       256   1516.4459         127640   329            295            32155          9006           85855          1.084316e-11 
       257   1534.1584         128617   323            286            32756          9321           85931          1.1054593e-11
       258   1551.9511         129507   320            274            33253          9649           86011          1.1220828e-11
       259   1569.8391         130433   315            270            33787          9968           86093          1.1378098e-11
       260   1588.136          131305   308            261            34256          10329          86151          1.1555312e-11
       261   1606.2173         132171   307            255            34737          10661          86211          1.1712595e-11
       262   1624.5734         133011   302            248            35186          11010          86265          1.184277e-11 
       263   1642.9767         133871   291            242            35673          11340          86325          1.1988395e-11
       264   1661.4608         134634   284            228            36123          11644          86355          1.2109521e-11
       265   1680.046          135359   274            222            36514          11957          86392          1.2201572e-11
       266   1698.7283         136100   262            217            36955          12233          86433          1.2314774e-11
       267   1717.4758         136797   254            209            37328          12540          86466          1.2387361e-11
       268   1736.3192         137526   251            202            37746          12826          86501          1.248665e-11 
       269   1755.1753         138105   247            195            38036          13091          86536          1.2506945e-11
       270   1774.3867         138644   240            192            38309          13336          86567          1.2536457e-11
       271   1793.4177         139246   229            187            38637          13585          86608          1.2570947e-11
       272   1812.5157         139789   221            184            38913          13830          86641          1.2581026e-11
       273   1831.7212         140334   215            172            39137          14140          86670          1.2605286e-11
       274   1850.9885         140842   204            165            39342          14439          86692          1.2608444e-11
       275   1870.3146         141326   192            162            39527          14729          86716          1.2596055e-11
       276   1889.7543         141831   180            157            39679          15073          86742          1.2599192e-11
       277   1909.2672         142277   173            148            39764          15426          86766          1.2595466e-11
       278   1928.7986         142739   167            139            39858          15775          86800          1.2577092e-11
       279   1948.3897         143235   159            133            39947          16164          86832          1.2588764e-11
       280   1968.3938         143732   147            124            40057          16539          86865          1.2574232e-11
       281   1988.0519         144219   136            113            40172          16910          86888          1.2564343e-11
       282   2007.7453         144655   126            105            40221          17292          86911          1.2549153e-11
       283   2027.5118         145090   117            96             40224          17711          86942          1.256006e-11 
       284   2047.3412         145485   109            89             40227          18092          86968          1.2545044e-11
       285   2067.2696         145979   100            84             40354          18452          86989          1.2525716e-11
       286   2087.2617         146440   96             83             40427          18816          87018          1.2507847e-11
       287   2107.332          146829   88             79             40434          19183          87045          1.2490844e-11
       288   2127.4177         147269   81             74             40483          19561          87070          1.2493672e-11
       289   2147.6936         147681   72             69             40534          19906          87100          1.2469898e-11
       290   2168.3991         148106   70             67             40617          20226          87126          1.2479688e-11
       291   2188.7759         148592   68             62             40755          20556          87151          1.2472597e-11
       292   2209.211          149015   62             58             40868          20852          87175          1.245615e-11 
       293   2229.7239         149364   56             54             40842          21210          87202          1.2445796e-11
       294   2250.314          149733   53             51             40880          21517          87232          1.2417436e-11
       295   2270.9633         150162   48             49             40958          21850          87257          1.2433592e-11
       296   2291.663          150623   46             46             41086          22166          87279          1.2443993e-11
       297   2312.4458         151043   43             45             41180          22465          87310          1.2418929e-11
       298   2333.3009         151423   42             44             41196          22803          87338          1.2410596e-11
       299   2354.2384         151771   37             41             41189          23144          87360          1.2392648e-11
       300   2375.5654         152172   36             39             41237          23473          87387          1.2402942e-11
       301   2396.6825         152653   33             38             41370          23798          87414          1.2390523e-11
       302   2417.8459         153020   33             37             41389          24123          87438          1.2377132e-11
       303   2439.0838         153389   32             37             41405          24450          87465          1.2385104e-11
       304   2460.4116         153752   28             36             41379          24821          87488          1.2384048e-11
       305   2481.7988         154098   27             35             41309          25214          87513          1.2360879e-11
       306   2503.2179         154437   24             32             41257          25585          87539          1.2345632e-11
       307   2524.683          154816   24             32             41257          25937          87566          1.2333345e-11
       308   2546.2333         155242   22             31             41285          26322          87582          1.2326361e-11
       309   2567.8842         155604   22             30             41243          26693          87616          1.2342656e-11
       310   2590.0484         155954   22             27             41173          27103          87629          1.2326944e-11
       311   2611.8944         156322   20             27             41138          27475          87662          1.233076e-11 
       312   2633.7988         156763   19             27             41129          27912          87676          1.2334106e-11
       313   2655.7579         157119   19             27             41014          28354          87705          1.2333521e-11
       314   2677.7829         157426   19             27             40890          28768          87722          1.2332239e-11
       315   2699.9069         157774   19             27             40772          29205          87751          1.2324636e-11
       316   2722.0923         158127   19             27             40670          29640          87771          1.232528e-11 
       317   2744.347          158545   19             27             40608          30096          87795          1.2329018e-11
       318   2766.6235         158926   19             27             40485          30575          87820          1.2337058e-11
       319   2788.9513         159292   19             27             40328          31075          87843          1.2352386e-11
       320   2811.78           159579   19             26             40099          31570          87865          1.2337404e-11
Loop time of 2811.78 on 16 procs for 320 steps with 159579 atoms

97.9% CPU use with 16 MPI tasks x 1 OpenMP threads

MPI task timing breakdown:
Section |  min time  |  avg time  |  max time  |%varavg| %total
---------------------------------------------------------------
Pair    | 737.06     | 872.52     | 1035.3     | 306.0 | 31.03
Neigh   | 563.85     | 651.73     | 823.88     | 306.1 | 23.18
Comm    | 345.21     | 402.9      | 473.26     | 220.1 | 14.33
Output  | 6.6434     | 6.6436     | 6.6448     |   0.0 |  0.24
Modify  | 477.31     | 863.96     | 1098.9     | 569.0 | 30.73
Other   |            | 14.01      |            |       |  0.50

Nlocal:        9973.69 ave       13587 max        8227 min
Histogram: 6 2 2 1 1 0 0 2 0 2
Nghost:        7772.25 ave        9364 max        6543 min
Histogram: 4 1 3 0 1 1 2 2 0 2
Neighs:        95901.4 ave      107732 max       88573 min
Histogram: 3 3 2 1 2 1 1 1 1 1

Total # of neighbors = 1534422
Ave neighs/atom = 9.6154381
Neighbor list builds = 28146
Dangerous builds = 27826

Total wall time: 0:46:58
