LAMMPS (23 Jun 2022 - Update 4)
  using 1 OpenMP thread(s) per MPI task
package omp 0
using multi-threaded neighbor list subroutines
#-----------------------------------------------------------------------------#
#                NUFEB Simulation: Heterotrophic Biofilm Growth               #
#-----------------------------------------------------------------------------#


#-----------------------------System Settings---------------------------------#

units si                                    # using si units (m, s, kg)
atom_style      coccus                      # using nufeb coccus atom style
atom_modify     map array sort 10 0         # map array - find atoms using indices
		                            # sort every 10

boundary        pp pp ff                    # periodic boundaries in x and y
                                            # fixed boundary in z

newton          off                         # forces between local and ghost
                                            # atoms are computed in each
					     # processor without communication

processors      * * 1                       # processor grid

comm_modify     vel yes                     # communicate velocities for ghost atoms

read_data       atom_ch.in	             # read atom.in file which defines domain size
Reading data file ...
  orthogonal box = (0 0 0) to (6e-05 6e-05 6e-05)
  4 by 4 by 1 MPI processor grid
  reading atoms ...
  150 atoms
  read_data CPU = 0.011 seconds
                                            # and initial atoms


#--------------------Microbes and Functional Groups-------------------------#

group           CROSS1   type 1               # assign type 1,2 atoms to CROSS group
50 atoms in group CROSS1
group           CROSS2   type 2
50 atoms in group CROSS2
group		CHEATER  type 3
50 atoms in group CHEATER
group           dead     type 4
0 atoms in group dead
group		EPS	 type 5
0 atoms in group EPS

neighbor        5e-7 bin                   # setting neighbour skin distance and style

neigh_modify    check yes                  # rebuild neighbour list if any atom
                                           # had moved more than half the skin distance


#--------------------------Mesh Grid and Substrates--------------------------#

# defining grid sytle, substrate names, and grid size
grid_style      nufeb/chemostat 3 sub metab1 metab2 5e-6

# set diffusion boundary conditions and initial concentrations (liquid:kg/m3)
grid_modify     set sub      pp pp nd  1.8e-4
No /omp style for force computation currently active
grid_modify     set metab1   pp pp nd  1e-4
No /omp style for force computation currently active
grid_modify     set metab2   pp pp nd  1e-4
No /omp style for force computation currently active


#--------------------------Biological Processes-------------------------------#

# heterotrophs growth
fix growth_cross1 CROSS1 nufeb/growth/cross1 sub 3.5e-5 metab2 4e-3 metab1 growth 0.009 yield 0.6 decay 2.6e-6 metab1_exp 20 epsyield 0.12 epsdens 30

fix growth_cross2 CROSS2 nufeb/growth/cross2 sub 3.5e-5 metab1 4e-3 metab2 growth 0.009 yield 0.6 decay 2.6e-6 metab2_exp 20 epsyield 0.12 epsdens 30

fix growth_cheater CHEATER nufeb/growth/cheater sub 3.5e-5 metab1 1e-3 metab2 1e-3 growth 0.009 yield 0.6 decay 2.6e-6

# heterotrophs division, division diameter: 1.36e-6
fix div1 CROSS1 nufeb/division/coccus 1.36e-6 587
fix div2 CROSS2 nufeb/division/coccus 1.36e-6 2042
fix div3 CHEATER nufeb/division/coccus 1.36e-6 4465

fix death1 CROSS1 nufeb/death/diameter dead 5.43e-7
fix death2 CROSS2 nufeb/death/diameter dead 5.43e-7
fix death3 CHEATER nufeb/death/diameter dead 5.43e-7

# EPS secretion from heterotrophs
fix eps1 CROSS1 nufeb/eps_secretion 5 EPS 1.1 30 7856
fix eps2 CROSS2 nufeb/eps_secretion 5 EPS 1.1 30 12215

#---------------------------Physical Processes--------------------------------#

pair_style  gran/hooke/history 1e-4 NULL 1e-5 NULL 0.0 0    # pairwise interaction
pair_coeff  * *                                             # between atoms

# pairwise interaction between z-wall and atoms
fix wall all wall/gran hooke/history 1e-3 NULL 1e-4 NULL 0 0 zplane 0.0 1e-04

fix vis all viscous 1e-5                                    # viscous damping force

fix grav all gravity 9.81 vector 0.0 0.0 -1.0

fix nve all nve/limit 1e-7                                  # NVE integration with
                                                            # maximum distance limit


#---------------------------Post-Physical Processes---------------------------#

fix coeff_sub all nufeb/diffusion_coeff sub ratio 0.8       # defining diffusion coeff in the biofilm
fix coeff_metab1 all nufeb/diffusion_coeff metab1 ratio 0.8    # region is 80% of the value in liquid
fix coeff_metab2 all nufeb/diffusion_coeff metab2 ratio 0.8

#---------------------------Chemical Processes---------------------------------#

fix diff_sub all nufeb/diffusion_reaction sub 1e-9        # diffusion reaction for updating
fix diff_metab1 all nufeb/diffusion_reaction metab1 4e-9     # distribusion of substrate concentration
fix diff_metab2 all nufeb/diffusion_reaction metab2 4e-9

#--------------------------Computations and Outputs----------------------------#

variable mass equal "mass(all)"                             # total mass
variable ncross1 equal "count(CROSS1)"                      # total # of CROSS1
variable ncross2 equal "count(CROSS2)"                      # total # of CROSS2
variable ncheater equal "count(CHEATER)"
variable ndead equal "count(dead)"
variable neps equal "count(EPS)"

shell mkdir vtk_EPS_ch                                            # dump vtk files to /vtk folder
dump du1 all vtk 10 vtk_EPS_ch/dump*.vtu id type diameter         # require build NUFEB with vtk option
dump du2 all grid/vtk 10 vtk_EPS_ch/dump_%_*.vti con rea den gro

#dump du3 all movie 10 movie.avi type diameter view 80 60    # dump video
#dump_modify du3 acolor 1 blue acolor 2 lightgrey framerate 10


                                                            # dump hdf5 files to /hdf5 folder
#shell mkdir hdf5                                           # require build NUFEB with hdf5 option
#dump du3 all nufeb/hdf5 10 dump.h5 id type x y z vx vy vz fx fy fz radius conc reac

thermo_style custom step cpu atoms v_ncross1 v_ncross2 v_ncheater v_ndead v_neps v_mass     # screen and log outputs
thermo 1
thermo_modify   lost ignore

#-----------------------------------Run----------------------------------------#

# issue run command, define timesteps for physical (pairdt) and chemical (diffdt) processes
run_style nufeb diffdt 1e-4 difftol 1e-6 pairdt 1e-2 pairtol 1 pairmax 1000 diffmax 5000

timestep 12000                                               # define biological timesteps (1000s)

run 320                                                    # growing biofilm for 900x1000s
Generated 0 of 6 mixed pair_coeff terms from geometric mixing rule
Last active /omp style is pair_style gran/hooke/history/omp
Neighbor list info ...
  update every 1 steps, delay 10 steps, check yes
  max neighbors/atom: 2000, page size: 100000
  master list distance cutoff = 2.49e-06
  ghost atom cutoff = 2.49e-06
  binsize = 1.245e-06, bins = 49 49 49
  1 neighbor lists, perpetual/occasional/extra = 1 0 0
  (1) pair gran/hooke/history/omp, perpetual
      attributes: half, newton off, size, history, omp
      pair build: half/size/bin/newtoff/omp
      stencil: full/bin/3d
      bin: standard
Per MPI rank memory allocation (min/avg/max) = 11.02 | 11.02 | 11.02 Mbytes
   Step          CPU          Atoms      v_ncross1      v_ncross2      v_ncheater      v_ndead         v_neps         v_mass    
         0   0                    150   50             50             50             0              0              1.3295396e-13
         1   0.38436783           432   90             85             86             0              171            1.7281784e-13
         2   0.76119774           800   121            126            136            0              417            1.9560981e-13
         3   1.076097            1123   132            140            180            0              671            2.1433864e-13
         4   1.387327            1432   140            150            195            0              947            2.3175016e-13
         5   1.6072577           1756   142            158            216            0              1240           2.4890476e-13
         6   1.7833465           2078   150            163            235            0              1530           2.65822e-13  
         7   1.9302576           2415   155            170            252            0              1838           2.8244413e-13
         8   2.0984703           2766   161            183            268            0              2154           2.9871494e-13
         9   2.246122            3136   171            193            292            0              2480           3.1477962e-13
        10   2.3845398           3495   179            197            305            0              2814           3.3063288e-13
        11   2.5231804           3880   186            205            328            0              3161           3.4605266e-13
        12   2.6634602           4261   190            211            347            0              3513           3.6094248e-13
        13   2.7757933           4654   197            218            367            0              3872           3.7537257e-13
        14   2.8774616           5034   199            225            379            0              4231           3.894829e-13 
        15   2.9798778           5446   206            235            401            0              4604           4.0326376e-13
        16   3.0710316           5840   209            239            419            0              4973           4.1675362e-13
        17   3.1676805           6244   213            244            436            0              5351           4.2997726e-13
        18   3.2678788           6658   218            249            450            0              5741           4.429158e-13 
        19   3.3819028           7056   223            252            468            0              6113           4.5553764e-13
        20   16.159545           7461   228            258            482            0              6493           4.6777987e-13
        21   16.289285           7858   232            261            503            0              6862           4.795231e-13 
        22   16.378019           8255   237            262            516            0              7240           4.9057355e-13
        23   16.477908           8657   241            268            529            0              7619           5.0136374e-13
        24   16.562826           9028   245            270            541            0              7972           5.1173844e-13
        25   16.629738           9443   249            279            554            0              8361           5.2203858e-13
        26   16.740845           9863   252            284            567            0              8760           5.3198133e-13
        27   16.83103           10245   253            289            583            0              9120           5.4142985e-13
        28   16.926933          10661   258            292            600            0              9511           5.5082393e-13
        29   17.01849           11058   261            295            610            0              9892           5.5991689e-13
        30   35.234299          11454   266            295            624            0              10269          5.6873599e-13
        31   35.346018          11877   272            299            638            0              10668          5.7744189e-13
        32   35.467794          12286   276            302            647            0              11061          5.8583464e-13
        33   35.601617          12667   278            305            656            0              11428          5.93754e-13  
        34   35.746654          13110   281            310            672            0              11847          6.0184199e-13
        35   35.909977          13519   282            310            687            0              12240          6.0943458e-13
        36   36.022721          13921   284            312            699            0              12626          6.1684012e-13
        37   36.309858          14323   286            315            704            0              13018          6.2414741e-13
        38   36.572796          14733   290            316            711            0              13416          6.3063795e-13
        39   36.914029          15137   293            317            719            0              13808          6.368419e-13 
        40   37.393667          15519   294            319            728            0              14178          6.4275682e-13
        41   37.922006          15934   298            321            736            0              14579          6.4834306e-13
        42   38.572589          16318   302            321            744            0              14951          6.5335309e-13
        43   39.345266          16756   307            324            751            0              15374          6.5856517e-13
        44   40.153684          17138   313            327            757            0              15741          6.6322921e-13
        45   41.049673          17568   316            331            765            0              16156          6.679155e-13 
        46   41.965487          17953   316            331            770            0              16536          6.7209927e-13
        47   42.881143          18383   318            331            778            0              16956          6.7628394e-13
        48   43.811346          18773   319            332            783            0              17339          6.8009219e-13
        49   44.754869          19196   321            335            788            0              17752          6.8389134e-13
        50   45.765714          19598   325            337            795            0              18141          6.8741849e-13
        51   46.770995          20040   327            338            802            0              18573          6.9116055e-13
        52   47.76107           20411   330            342            805            0              18934          6.943655e-13 
        53   48.78007           20860   331            344            808            0              19377          6.9792381e-13
        54   49.819029          21247   331            346            812            0              19758          7.0108936e-13
        55   50.893329          21674   333            350            816            0              20175          7.0444182e-13
        56   51.976677          22086   338            350            821            0              20577          7.0750079e-13
        57   53.093443          22502   341            353            825            0              20983          7.1047205e-13
        58   54.232482          22938   345            355            829            0              21409          7.1344391e-13
        59   55.418559          23362   349            356            833            0              21824          7.163707e-13 
        60   56.689682          23760   351            357            836            0              22216          7.1926363e-13
        61   57.92008           24226   354            359            841            2              22670          7.2246613e-13
        62   59.15923           24629   356            362            842            5              23064          7.2517996e-13
        63   60.439666          25066   356            363            844            6              23497          7.2795025e-13
        64   61.785483          25491   357            367            847            7              23913          7.3089593e-13
        65   63.159119          25942   361            370            851            9              24351          7.3447215e-13
        66   64.567229          26343   361            370            858            10             24744          7.378265e-13 
        67   66.002759          26787   363            371            864            12             25177          7.4152399e-13
        68   67.480351          27230   366            373            867            13             25611          7.4578428e-13
        69   69.029103          27655   368            373            877            15             26022          7.504142e-13 
        70   70.667749          28097   370            373            888            16             26450          7.5593777e-13
        71   72.330827          28531   370            374            903            18             26866          7.6185236e-13
        72   73.931263          28958   370            375            917            19             27277          7.6847541e-13
        73   75.607536          29406   371            378            932            20             27705          7.7525463e-13
        74   77.350728          29833   371            379            950            24             28109          7.8259139e-13
        75   79.086502          30278   372            379            965            31             28531          7.9069124e-13
        76   80.843427          30689   374            380            982            37             28916          7.9896542e-13
        77   82.58427           31116   375            381            995            45             29320          8.0765969e-13
        78   84.386304          31558   375            381            1006           54             29742          8.1642506e-13
        79   86.310589          31969   375            381            1021           63             30129          8.2536962e-13
        80   88.27064           32428   376            383            1046           66             30557          8.3524622e-13
        81   90.171102          32842   379            383            1071           71             30938          8.4512798e-13
        82   92.158429          33286   381            384            1099           73             31349          8.5561471e-13
        83   94.226             33709   383            385            1126           78             31737          8.6635029e-13
        84   96.269615          34163   383            386            1151           90             32153          8.7828627e-13
        85   98.438783          34567   384            386            1174           99             32524          8.90343e-13  
        86   100.65071          35020   387            386            1205           110            32932          9.0367902e-13
        87   102.86053          35422   387            386            1232           123            33294          9.178118e-13 
        88   105.1045           35883   387            386            1278           126            33706          9.3302137e-13
        89   107.40191          36291   387            387            1319           134            34064          9.4870188e-13
        90   109.78668          36726   387            388            1363           139            34449          9.6529744e-13
        91   112.12678          37136   387            389            1402           147            34811          9.8207261e-13
        92   114.52528          37570   387            389            1445           152            35197          9.9938565e-13
        93   116.96484          37981   387            389            1498           157            35550          1.0171464e-12
        94   119.39481          38378   390            389            1540           169            35890          1.0354107e-12
        95   121.83752          38795   390            389            1584           177            36255          1.0538623e-12
        96   124.31773          39211   391            389            1647           180            36604          1.072355e-12 
        97   126.83359          39622   391            390            1699           190            36952          1.0908553e-12
        98   129.36968          40041   391            390            1755           198            37307          1.1093698e-12
        99   131.94427          40429   392            391            1808           206            37632          1.1275611e-12
       100   134.82491          40840   393            392            1850           216            37989          1.1459428e-12
       101   137.47039          41220   393            392            1897           227            38311          1.1641141e-12
       102   140.20992          41643   395            392            1955           231            38670          1.1822626e-12
       103   142.93349          42036   395            392            2011           240            38998          1.2006464e-12
       104   145.79832          42415   396            392            2051           243            39333          1.2188485e-12
       105   148.63942          42816   397            392            2110           248            39669          1.2374318e-12
       106   151.56869          43209   399            392            2171           251            39996          1.256216e-12 
       107   154.47364          43584   400            392            2223           259            40310          1.2751582e-12
       108   157.44377          43961   400            393            2265           270            40633          1.2941032e-12
       109   160.45466          44340   402            393            2325           280            40940          1.3130429e-12
       110   163.62877          44740   402            393            2378           287            41280          1.3322222e-12
       111   166.68738          45095   403            393            2445           295            41559          1.3515343e-12
       112   169.80157          45507   405            396            2500           306            41900          1.3707338e-12
       113   172.95187          45887   406            396            2555           319            42211          1.3902665e-12
       114   176.14425          46267   406            396            2611           331            42523          1.4099076e-12
       115   179.36386          46639   407            397            2660           341            42834          1.4297806e-12
       116   182.64379          47017   407            397            2718           350            43145          1.4498339e-12
       117   185.99849          47398   408            398            2775           364            43453          1.4702958e-12
       118   189.40529          47794   409            398            2852           380            43755          1.4907073e-12
       119   192.85402          48184   409            398            2913           394            44070          1.5120132e-12
       120   196.42986          48578   411            398            2980           410            44379          1.5336515e-12
       121   199.95236          48958   411            398            3048           427            44674          1.5558427e-12
       122   203.53063          49346   414            400            3110           444            44978          1.5784092e-12
       123   207.1153           49748   415            400            3185           465            45283          1.6016648e-12
       124   210.79285          50137   415            400            3275           483            45564          1.6246185e-12
       125   214.51016          50555   415            400            3358           496            45886          1.6484588e-12
       126   218.25959          50919   415            402            3430           508            46164          1.6721248e-12
       127   222.04344          51318   415            402            3506           534            46461          1.6958391e-12
       128   225.89167          51695   415            402            3592           548            46738          1.7195316e-12
       129   229.76411          52086   415            402            3670           563            47036          1.7432709e-12
       130   233.82389          52469   415            402            3758           575            47319          1.7667086e-12
       131   237.8378           52831   416            402            3842           600            47571          1.7902331e-12
       132   241.82309          53227   416            402            3921           622            47866          1.8142993e-12
       133   245.92812          53616   416            402            4000           649            48149          1.8380516e-12
       134   250.03004          53976   417            403            4098           660            48398          1.8620674e-12
       135   254.19555          54389   418            403            4191           683            48694          1.8856991e-12
       136   258.42988          54758   418            403            4282           697            48958          1.9095625e-12
       137   262.66283          55104   418            403            4354           719            49210          1.9333443e-12
       138   266.95313          55489   418            403            4434           745            49489          1.9567637e-12
       139   271.2762           55870   419            405            4525           767            49754          1.97992e-12  
       140   275.86726          56255   420            405            4606           787            50037          2.0026934e-12
       141   280.37265          56627   421            405            4701           808            50292          2.0254346e-12
       142   284.9431           57022   421            405            4813           820            50563          2.047768e-12 
       143   289.60437          57396   422            405            4892           843            50834          2.0706364e-12
       144   294.34681          57780   422            405            4992           864            51097          2.0937912e-12
       145   299.13534          58178   422            406            5092           888            51370          2.1178028e-12
       146   303.99903          58541   422            407            5169           915            51628          2.1419333e-12
       147   308.91896          58908   422            407            5257           933            51889          2.1668071e-12
       148   313.90061          59296   422            407            5365           946            52156          2.1920236e-12
       149   318.93909          59661   423            407            5473           961            52397          2.2171136e-12
       150   324.19498          60053   424            407            5576           980            52666          2.2422233e-12
       151   329.35134          60433   424            408            5678           994            52929          2.26712e-12  
       152   334.5593           60793   424            408            5788           1010           53163          2.2916155e-12
       153   339.83627          61189   424            408            5891           1034           53432          2.3157842e-12
       154   345.20229          61579   424            408            5995           1056           53696          2.3397759e-12
       155   350.66026          61957   424            408            6108           1082           53935          2.3633955e-12
       156   356.19761          62325   424            408            6193           1109           54191          2.387278e-12 
       157   361.79348          62708   424            409            6290           1139           54446          2.4111605e-12
       158   367.45623          63099   424            410            6396           1159           54710          2.4358159e-12
       159   373.18998          63492   425            411            6504           1188           54964          2.4607544e-12
       160   379.13753          63867   424            411            6604           1221           55207          2.486748e-12 
       161   384.99855          64271   424            411            6710           1262           55464          2.5136312e-12
       162   390.93664          64667   424            410            6803           1304           55726          2.5413135e-12
       163   396.93342          65050   425            411            6893           1346           55975          2.5694019e-12
       164   403.00696          65452   425            411            6992           1384           56240          2.5973281e-12
       165   409.15517          65878   425            412            7106           1421           56514          2.6254171e-12
       166   415.39864          66280   425            412            7216           1456           56771          2.6536645e-12
       167   421.70938          66692   425            412            7349           1491           57015          2.6819753e-12
       168   428.12862          67087   425            412            7448           1525           57277          2.7102483e-12
       169   434.62932          67527   424            412            7569           1574           57548          2.7385593e-12
       170   441.35647          67911   424            410            7657           1621           57799          2.7670859e-12
       171   448.01333          68361   424            409            7792           1658           58078          2.7969433e-12
       172   454.74797          68756   423            408            7908           1698           58319          2.8272174e-12
       173   461.55281          69205   423            407            8039           1741           58595          2.8582359e-12
       174   468.46065          69630   418            404            8157           1797           58854          2.8897126e-12
       175   475.48049          70076   418            404            8267           1857           59130          2.9225998e-12
       176   482.56063          70486   417            403            8353           1927           59386          2.9560608e-12
       177   489.76998          70928   418            402            8457           2003           59648          2.9898686e-12
       178   497.04578          71377   417            401            8540           2100           59919          3.0237201e-12
       179   504.41989          71827   415            399            8626           2186           60201          3.0583939e-12
       180   512.05278          72270   414            398            8733           2271           60454          3.0934146e-12
       181   519.56822          72739   414            396            8842           2351           60736          3.1297087e-12
       182   527.18766          73189   412            396            8944           2439           60998          3.1680006e-12
       183   534.90416          73643   411            394            9053           2527           61258          3.2080507e-12
       184   542.6975           74128   410            394            9162           2617           61545          3.2498842e-12
       185   550.59613          74575   408            390            9249           2718           61810          3.2930192e-12
       186   558.63808          75057   406            390            9387           2814           62060          3.336777e-12 
       187   566.74797          75548   406            390            9505           2909           62338          3.3817439e-12
       188   574.96995          76042   403            384            9630           3011           62614          3.4278552e-12
       189   583.28185          76549   402            383            9756           3111           62897          3.4747791e-12
       190   591.89092          77030   400            383            9886           3204           63157          3.5232601e-12
       191   600.46058          77530   400            382            10029          3299           63420          3.5741584e-12
       192   609.18612          78029   396            381            10182          3374           63696          3.6285438e-12
       193   618.0054           78594   395            381            10372          3453           63993          3.6856512e-12
       194   626.94433          79106   392            380            10575          3518           64241          3.7461729e-12
       195   636.0101           79639   391            377            10768          3582           64521          3.810211e-12 
       196   645.1656           80189   389            376            10959          3662           64803          3.8780798e-12
       197   654.52559          80770   388            375            11200          3741           65066          3.9484998e-12
       198   664.03709          81338   385            374            11429          3817           65333          4.021868e-12 
       199   673.68555          81933   384            374            11677          3888           65610          4.1002311e-12
       200   683.63011          82547   381            374            11939          3959           65894          4.1846053e-12
       201   693.53154          83139   381            374            12212          4026           66146          4.2765308e-12
       202   703.60694          83824   381            372            12545          4098           66428          4.3774194e-12
       203   713.91878          84474   377            370            12869          4174           66684          4.4871534e-12
       204   724.33811          85171   375            368            13229          4246           66953          4.6074976e-12
       205   734.97402          85893   373            366            13605          4310           67239          4.7354508e-12
       206   745.8107           86615   371            364            14014          4382           67484          4.8693474e-12
       207   756.84115          87353   367            361            14414          4463           67748          5.0039505e-12
       208   768.072            88111   360            358            14831          4549           68013          5.13864e-12  
       209   779.46775          88836   358            355            15244          4626           68253          5.2736652e-12
       210   791.26957          89622   357            353            15684          4695           68533          5.4115635e-12
       211   802.93966          90388   356            352            16111          4781           68788          5.552449e-12 
       212   814.74729          91164   355            351            16585          4863           69010          5.6959774e-12
       213   826.57959          91943   354            347            17039          4930           69273          5.8339266e-12
       214   838.48252          92737   352            345            17513          5003           69524          5.9886699e-12
       215   850.35361          93544   351            343            17985          5093           69772          6.1398855e-12
       216   862.2598           94334   350            339            18445          5177           70023          6.2799916e-12
       217   874.18065          95126   349            338            18915          5272           70252          6.4386022e-12
       218   886.19115          95929   349            337            19374          5378           70491          6.5888682e-12
       219   898.23915          96849   346            333            19937          5495           70738          6.7556492e-12
       220   910.53959          97676   344            330            20448          5597           70957          6.9251363e-12
       221   922.68407          98495   341            326            20922          5723           71183          7.0996501e-12
       222   934.87437          99401   337            322            21505          5837           71400          7.2827278e-12
       223   947.09304         100299   333            320            22075          5960           71611          7.4519263e-12
       224   959.38302         101190   330            316            22615          6093           71836          7.6272679e-12
       225   971.69856         102120   328            314            23236          6212           72030          7.8172884e-12
       226   984.09412         103001   327            312            23796          6333           72233          8.0029312e-12
       227   996.48041         103882   321            307            24351          6478           72425          8.1977687e-12
       228   1008.9749         104849   319            303            24989          6633           72605          8.395068e-12 
       229   1021.5644         105837   317            301            25650          6782           72787          8.5882604e-12
       230   1034.4656         106804   312            297            26264          6973           72958          8.8022509e-12
       231   1047.1236         107730   306            292            26839          7176           73117          8.9943464e-12
       232   1059.8646         108584   297            292            27337          7384           73274          9.1852607e-12
       233   1072.6231         109542   295            286            27961          7589           73411          9.3767175e-12
       234   1085.4384         110506   289            282            28579          7801           73555          9.5710417e-12
       235   1098.3093         111443   282            279            29172          8024           73686          9.7627837e-12
       236   1111.1943         112400   278            276            29791          8246           73809          9.9624688e-12
       237   1124.1024         113289   270            272            30314          8497           73936          1.0147681e-11
       238   1137.0837         114190   264            268            30855          8763           74040          1.0353491e-11
       239   1150.1135         115101   260            259            31426          9020           74136          1.0526269e-11
       240   1163.4467         116024   257            254            31976          9304           74233          1.0706835e-11
       241   1176.5676         116855   253            245            32473          9569           74315          1.0859827e-11
       242   1189.75           117714   246            240            32991          9843           74394          1.1038009e-11
       243   1202.9556         118566   239            236            33501          10123          74467          1.1197916e-11
       244   1216.2132         119346   235            230            33939          10392          74550          1.1327815e-11
       245   1229.5322         120161   231            225            34411          10677          74617          1.1444554e-11
       246   1242.8089         120861   228            217            34753          10993          74670          1.1561791e-11
       247   1256.1304         121623   221            209            35151          11314          74728          1.1668392e-11
       248   1269.4925         122291   217            198            35517          11587          74772          1.1759928e-11
       249   1282.8741         122990   210            193            35867          11899          74821          1.1841717e-11
       250   1296.616          123623   196            187            36217          12166          74857          1.1917266e-11
       251   1310.1794         124267   190            182            36547          12446          74902          1.1987423e-11
       252   1323.7921         124929   183            174            36916          12718          74938          1.2058341e-11
       253   1337.4182         125482   179            168            37194          12964          74977          1.2104446e-11
       254   1351.1147         126054   168            163            37512          13202          75009          1.2163637e-11
       255   1364.8365         126649   163            157            37825          13473          75031          1.2210537e-11
       256   1378.6148         127302   157            155            38216          13718          75056          1.2251118e-11
       257   1392.3979         127746   153            150            38375          13980          75088          1.2278099e-11
       258   1406.2522         128326   149            142            38669          14243          75123          1.2318366e-11
       259   1420.1533         128853   146            137            38882          14536          75152          1.2343804e-11
       260   1434.3922         129293   142            129            39023          14821          75178          1.232771e-11 
       261   1448.3427         129873   133            126            39274          15140          75200          1.235974e-11 
       262   1462.3501         130255   128            126            39333          15441          75227          1.2362616e-11
       263   1476.4164         130735   121            123            39448          15791          75252          1.2369889e-11
       264   1491.3385         131193   116            115            39554          16127          75281          1.2366265e-11
       265   1505.5298         131719   111            112            39722          16473          75301          1.2355802e-11
       266   1519.7832         132186   104            109            39814          16827          75332          1.2359551e-11
       267   1534.0591         132609   97             107            39849          17202          75354          1.2371665e-11
       268   1548.4443         133033   93             103            39885          17564          75388          1.2366797e-11
       269   1562.9043         133454   91             101            39909          17940          75413          1.2354229e-11
       270   1577.7502         133833   88             96             39924          18292          75433          1.2337661e-11
       271   1592.2501         134298   84             89             40027          18638          75460          1.2343846e-11
       272   1606.7756         134817   82             89             40147          19006          75493          1.2346997e-11
       273   1621.323          135140   77             80             40107          19350          75526          1.2340272e-11
       274   1635.9223         135586   69             76             40196          19694          75551          1.2317285e-11
       275   1650.5757         135976   64             72             40254          20010          75576          1.2300843e-11
       276   1665.2727         136357   62             68             40278          20342          75607          1.2272898e-11
       277   1680.0384         136822   59             66             40399          20669          75629          1.2282862e-11
       278   1694.8346         137136   55             64             40361          20991          75665          1.2272064e-11
       279   1709.6775         137582   53             59             40453          21327          75690          1.2263579e-11
       280   1724.8772         137995   53             57             40522          21643          75720          1.226723e-11 
       281   1739.8183         138444   52             56             40647          21939          75750          1.2258441e-11
       282   1754.8202         138808   49             51             40696          22238          75774          1.22578e-11  
       283   1769.8854         139178   44             50             40722          22556          75806          1.2257539e-11
       284   1784.9769         139561   43             47             40786          22852          75833          1.2242107e-11
       285   1800.0635         139850   43             45             40724          23184          75854          1.2229487e-11
       286   1815.2604         140319   41             44             40854          23494          75886          1.2221662e-11
       287   1830.5068         140739   40             42             40900          23838          75919          1.2240941e-11
       288   1845.7806         141124   38             41             40868          24234          75943          1.2246997e-11
       289   1861.1596         141487   37             40             40812          24627          75971          1.2214762e-11
       290   1876.8287         141839   37             35             40762          25002          76003          1.2217115e-11
       291   1892.2688         142215   36             34             40759          25362          76024          1.2204752e-11
       292   1907.7888         142553   33             31             40754          25686          76049          1.2190788e-11
       293   1923.3147         142966   33             30             40761          26061          76081          1.2209153e-11
       294   1938.9185         143343   32             30             40689          26489          76103          1.2206344e-11
       295   1954.6079         143666   29             30             40566          26908          76133          1.2208865e-11
       296   1970.2464         144083   29             29             40571          27299          76155          1.2221158e-11
       297   1985.9753         144534   29             28             40604          27693          76180          1.2223455e-11
       298   2001.7755         144879   27             27             40468          28149          76208          1.2199316e-11
       299   2017.5877         145123   27             27             40248          28591          76230          1.2193919e-11
       300   2033.7813         145487   27             26             40096          29079          76259          1.2204582e-11
       301   2049.7447         145905   27             26             40031          29541          76280          1.2216673e-11
       302   2065.8394         146264   27             26             39909          29994          76308          1.2228979e-11
       303   2082.0289         146728   26             26             39868          30476          76332          1.225166e-11 
       304   2098.2228         147022   26             26             39630          30979          76361          1.2228551e-11
       305   2114.4382         147419   26             26             39525          31460          76382          1.2249323e-11
       306   2130.6835         147692   25             26             39283          31947          76411          1.222958e-11 
       307   2147.0047         148035   25             26             39102          32450          76432          1.2228128e-11
       308   2163.3618         148439   24             26             38991          32935          76463          1.2240694e-11
       309   2179.8243         148695   24             26             38775          33388          76482          1.222883e-11 
       310   2196.6347         149130   24             25             38708          33858          76515          1.2253269e-11
       311   2213.0827         149394   24             24             38476          34338          76532          1.2247499e-11
       312   2229.6058         149792   24             23             38348          34835          76562          1.2240905e-11
       313   2246.2283         150131   24             23             38208          35295          76581          1.2267002e-11
       314   2262.7035         150500   24             23             38115          35730          76608          1.2273661e-11
       315   2279.2433         150840   24             23             37942          36221          76630          1.2284173e-11
       316   2295.8302         151188   24             23             37824          36658          76659          1.2296471e-11
       317   2312.4337         151558   24             23             37740          37091          76680          1.2332636e-11
       318   2329.0472         151873   24             23             37618          37503          76705          1.2330379e-11
       319   2345.9821         152233   24             23             37542          37915          76729          1.2316499e-11
       320   2363.1656         152531   24             23             37395          38334          76755          1.2324759e-11
Loop time of 2363.17 on 16 procs for 320 steps with 152531 atoms

98.1% CPU use with 16 MPI tasks x 1 OpenMP threads

MPI task timing breakdown:
Section |  min time  |  avg time  |  max time  |%varavg| %total
---------------------------------------------------------------
Pair    | 553.15     | 635.73     | 795.43     | 267.7 | 26.90
Neigh   | 502.73     | 586.44     | 826.92     | 355.5 | 24.82
Comm    | 220.64     | 246.93     | 276.6      | 119.7 | 10.45
Output  | 36.618     | 36.618     | 36.619     |   0.0 |  1.55
Modify  | 428.54     | 845.44     | 1016       | 554.3 | 35.78
Other   |            | 12.01      |            |       |  0.51

Nlocal:        9533.19 ave       14887 max        7921 min
Histogram: 5 6 1 1 1 1 0 0 0 1
Nghost:        7396.88 ave        9383 max        6393 min
Histogram: 3 4 3 0 1 3 0 0 1 1
Neighs:        91192.1 ave      102914 max       83802 min
Histogram: 2 3 4 1 1 1 1 1 1 1

Total # of neighbors = 1459073
Ave neighs/atom = 9.5657473
Neighbor list builds = 28184
Dangerous builds = 27864

Total wall time: 0:39:52
