LAMMPS (23 Jun 2022 - Update 4)
  using 1 OpenMP thread(s) per MPI task
package omp 0
using multi-threaded neighbor list subroutines
#-----------------------------------------------------------------------------#
#                NUFEB Simulation: Heterotrophic Biofilm Growth               #
#-----------------------------------------------------------------------------#


#-----------------------------System Settings---------------------------------#

units si                                    # using si units (m, s, kg)
atom_style      coccus                      # using nufeb coccus atom style
atom_modify     map array sort 10 0         # map array - find atoms using indices
		                            # sort every 10

boundary        pp pp ff                    # periodic boundaries in x and y
                                            # fixed boundary in z

newton          off                         # forces between local and ghost
                                            # atoms are computed in each
					     # processor without communication

processors      * * 1                       # processor grid

comm_modify     vel yes                     # communicate velocities for ghost atoms

read_data       atom_ch.in	             # read atom.in file which defines domain size
Reading data file ...
  orthogonal box = (0 0 0) to (6e-05 6e-05 6e-05)
  4 by 4 by 1 MPI processor grid
  reading atoms ...
  150 atoms
  read_data CPU = 0.023 seconds
                                            # and initial atoms


#--------------------Microbes and Functional Groups-------------------------#

group           CROSS1   type 1               # assign type 1,2 atoms to CROSS group
50 atoms in group CROSS1
group           CROSS2   type 2
50 atoms in group CROSS2
group		CHEATER  type 3
50 atoms in group CHEATER
group           dead     type 4
0 atoms in group dead
group		EPS	 type 5
0 atoms in group EPS

neighbor        5e-7 bin                   # setting neighbour skin distance and style

neigh_modify    check yes                  # rebuild neighbour list if any atom
                                           # had moved more than half the skin distance


#--------------------------Mesh Grid and Substrates--------------------------#

# defining grid sytle, substrate names, and grid size
grid_style      nufeb/chemostat 3 sub metab1 metab2 5e-6

# set diffusion boundary conditions and initial concentrations (liquid:kg/m3)
grid_modify     set sub      pp pp nd  1.8e-4
No /omp style for force computation currently active
grid_modify     set metab1   pp pp nd  1e-4
No /omp style for force computation currently active
grid_modify     set metab2   pp pp nd  1e-4
No /omp style for force computation currently active


#--------------------------Biological Processes-------------------------------#

# heterotrophs growth
fix growth_cross1 CROSS1 nufeb/growth/cross1 sub 3.5e-5 metab2 4e-3 metab1 growth 0.009 yield 0.6 decay 2.6e-6 metab1_exp 20 epsyield 0.12 epsdens 30

fix growth_cross2 CROSS2 nufeb/growth/cross2 sub 3.5e-5 metab1 4e-3 metab2 growth 0.009 yield 0.6 decay 2.6e-6 metab2_exp 20 epsyield 0.12 epsdens 30

fix growth_cheater CHEATER nufeb/growth/cheater sub 3.5e-5 metab1 1e-3 metab2 1e-3 growth 0.009 yield 0.6 decay 2.6e-6

# heterotrophs division, division diameter: 1.36e-6
fix div1 CROSS1 nufeb/division/coccus 1.36e-6 779
fix div2 CROSS2 nufeb/division/coccus 1.36e-6 2810
fix div3 CHEATER nufeb/division/coccus 1.36e-6 6193

fix death1 CROSS1 nufeb/death/diameter dead 5.43e-7
fix death2 CROSS2 nufeb/death/diameter dead 5.43e-7
fix death3 CHEATER nufeb/death/diameter dead 5.43e-7

# EPS secretion from heterotrophs
fix eps1 CROSS1 nufeb/eps_secretion 5 EPS 1.1 30 10928
fix eps2 CROSS2 nufeb/eps_secretion 5 EPS 1.1 30 17015

#---------------------------Physical Processes--------------------------------#

pair_style  gran/hooke/history 1e-4 NULL 1e-5 NULL 0.0 0    # pairwise interaction
pair_coeff  * *                                             # between atoms

# pairwise interaction between z-wall and atoms
fix wall all wall/gran hooke/history 1e-3 NULL 1e-4 NULL 0 0 zplane 0.0 1e-04

fix vis all viscous 1e-5                                    # viscous damping force

fix grav all gravity 9.81 vector 0.0 0.0 -1.0

fix nve all nve/limit 1e-7                                  # NVE integration with
                                                            # maximum distance limit


#---------------------------Post-Physical Processes---------------------------#

fix coeff_sub all nufeb/diffusion_coeff sub ratio 0.8       # defining diffusion coeff in the biofilm
fix coeff_metab1 all nufeb/diffusion_coeff metab1 ratio 0.8    # region is 80% of the value in liquid
fix coeff_metab2 all nufeb/diffusion_coeff metab2 ratio 0.8

#---------------------------Chemical Processes---------------------------------#

fix diff_sub all nufeb/diffusion_reaction sub 1e-9        # diffusion reaction for updating
fix diff_metab1 all nufeb/diffusion_reaction metab1 4e-9     # distribusion of substrate concentration
fix diff_metab2 all nufeb/diffusion_reaction metab2 4e-9

#--------------------------Computations and Outputs----------------------------#

variable mass equal "mass(all)"                             # total mass
variable ncross1 equal "count(CROSS1)"                      # total # of CROSS1
variable ncross2 equal "count(CROSS2)"                      # total # of CROSS2
variable ncheater equal "count(CHEATER)"
variable ndead equal "count(dead)"
variable neps equal "count(EPS)"

shell mkdir vtk_EPS_ch                                            # dump vtk files to /vtk folder
dump du1 all vtk 10 vtk_EPS_ch/dump*.vtu id type diameter         # require build NUFEB with vtk option
dump du2 all grid/vtk 10 vtk_EPS_ch/dump_%_*.vti con rea den gro

#dump du3 all movie 10 movie.avi type diameter view 80 60    # dump video
#dump_modify du3 acolor 1 blue acolor 2 lightgrey framerate 10


                                                            # dump hdf5 files to /hdf5 folder
#shell mkdir hdf5                                           # require build NUFEB with hdf5 option
#dump du3 all nufeb/hdf5 10 dump.h5 id type x y z vx vy vz fx fy fz radius conc reac

thermo_style custom step cpu atoms v_ncross1 v_ncross2 v_ncheater v_ndead v_neps v_mass     # screen and log outputs
thermo 1
thermo_modify   lost ignore

#-----------------------------------Run----------------------------------------#

# issue run command, define timesteps for physical (pairdt) and chemical (diffdt) processes
run_style nufeb diffdt 1e-4 difftol 1e-6 pairdt 1e-2 pairtol 1 pairmax 1000 diffmax 5000

timestep 12000                                               # define biological timesteps (1000s)

run 320                                                    # growing biofilm for 900x1000s
Generated 0 of 6 mixed pair_coeff terms from geometric mixing rule
Last active /omp style is pair_style gran/hooke/history/omp
Neighbor list info ...
  update every 1 steps, delay 10 steps, check yes
  max neighbors/atom: 2000, page size: 100000
  master list distance cutoff = 2.49e-06
  ghost atom cutoff = 2.49e-06
  binsize = 1.245e-06, bins = 49 49 49
  1 neighbor lists, perpetual/occasional/extra = 1 0 0
  (1) pair gran/hooke/history/omp, perpetual
      attributes: half, newton off, size, history, omp
      pair build: half/size/bin/newtoff/omp
      stencil: full/bin/3d
      bin: standard
Per MPI rank memory allocation (min/avg/max) = 11.02 | 11.02 | 11.02 Mbytes
   Step          CPU          Atoms      v_ncross1      v_ncross2      v_ncheater      v_ndead         v_neps         v_mass    
         0   0                    150   50             50             50             0              0              1.3295396e-13
         1   0.38501526           432   90             85             86             0              171            1.72671e-13  
         2   0.76939946           793   120            125            137            0              411            1.95509e-13  
         3   1.0954593           1113   128            143            179            0              663            2.145901e-13 
         4   1.4098603           1420   137            151            198            0              934            2.3238371e-13
         5   1.6158501           1732   143            157            219            0              1213           2.4977311e-13
         6   1.8043878           2053   147            168            230            0              1508           2.6705118e-13
         7   1.9654712           2382   157            174            246            0              1805           2.8400917e-13
         8   2.1163991           2732   163            181            266            0              2122           3.0072307e-13
         9   2.2589734           3098   165            194            293            0              2446           3.1716376e-13
        10   2.413035            3470   168            204            314            0              2784           3.3325726e-13
        11   2.5269393           3831   173            212            327            0              3119           3.4878039e-13
        12   2.6697538           4221   186            215            342            0              3478           3.6401812e-13
        13   2.8298699           4609   194            218            368            0              3829           3.7879756e-13
        14   2.9411629           5004   198            222            390            0              4194           3.9327201e-13
        15   3.0398347           5403   202            231            404            0              4566           4.072644e-13 
        16   3.1408354           5793   207            235            422            0              4929           4.2062314e-13
        17   3.2524392           6187   209            240            434            0              5304           4.3348094e-13
        18   3.3582932           6571   216            243            447            0              5665           4.4571566e-13
        19   3.4794544           6982   221            249            458            0              6054           4.5764295e-13
        20   14.876885           7380   224            252            475            0              6429           4.6915994e-13
        21   14.980041           7788   232            257            489            0              6810           4.8022226e-13
        22   15.101185           8174   235            261            502            0              7176           4.9087082e-13
        23   15.181407           8574   240            264            517            0              7553           5.0128384e-13
        24   15.270422           8977   247            267            530            0              7933           5.1126485e-13
        25   15.381496           9390   251            274            540            0              8325           5.2094236e-13
        26   15.465645           9783   252            277            551            0              8703           5.2994345e-13
        27   15.583341          10185   258            279            565            0              9083           5.3863559e-13
        28   15.692265          10595   260            283            575            0              9477           5.4687969e-13
        29   15.784447          10994   263            287            589            0              9855           5.547998e-13 
        30   31.341852          11394   266            288            594            0              10246          5.6254035e-13
        31   31.481585          11784   269            291            601            0              10623          5.6975142e-13
        32   31.594833          12203   274            293            610            0              11026          5.7662514e-13
        33   31.727793          12601   276            299            621            0              11405          5.8332165e-13
        34   31.838858          13002   278            302            626            0              11796          5.8980207e-13
        35   32.015565          13412   281            305            631            0              12195          5.961337e-13 
        36   32.168723          13812   283            308            638            0              12583          6.0221289e-13
        37   32.375855          14198   285            311            643            0              12959          6.0784559e-13
        38   32.716657          14611   287            316            653            0              13355          6.1334731e-13
        39   33.01437           15011   291            317            657            0              13746          6.1824596e-13
        40   33.338005          15419   296            321            664            0              14138          6.2318812e-13
        41   33.662755          15830   299            323            670            0              14538          6.2811229e-13
        42   34.293443          16232   300            324            676            0              14932          6.3314097e-13
        43   34.762926          16644   303            327            685            0              15329          6.3798197e-13
        44   35.641591          17062   310            327            690            0              15735          6.4279484e-13
        45   36.538196          17470   313            332            694            0              16131          6.4717527e-13
        46   37.44914           17884   315            333            697            0              16539          6.516003e-13 
        47   38.355741          18302   316            334            702            0              16950          6.5600317e-13
        48   39.296179          18716   323            338            706            0              17349          6.6015622e-13
        49   40.265558          19148   324            340            710            0              17774          6.6425461e-13
        50   41.30677           19559   326            344            714            0              18175          6.6812622e-13
        51   42.321798          19992   330            346            719            0              18597          6.7195039e-13
        52   43.370149          20411   332            348            725            0              19006          6.7588919e-13
        53   44.43116           20846   334            350            733            0              19429          6.7987302e-13
        54   45.531964          21255   336            350            737            0              19832          6.8403368e-13
        55   46.663639          21700   338            352            744            0              20266          6.8837736e-13
        56   47.816917          22121   340            352            756            0              20673          6.9288516e-13
        57   49.002303          22548   343            354            764            0              21087          6.9729945e-13
        58   50.215546          22980   345            354            774            0              21507          7.0201567e-13
        59   51.451416          23406   347            354            780            1              21924          7.0660232e-13
        60   52.745519          23835   348            358            788            1              22340          7.1158934e-13
        61   54.016966          24260   352            360            800            1              22747          7.163237e-13 
        62   55.314232          24694   352            361            811            3              23167          7.2118122e-13
        63   56.657982          25100   353            363            819            4              23561          7.2602133e-13
        64   57.997898          25550   355            363            830            5              23997          7.3157418e-13
        65   59.396634          25969   357            363            844            5              24400          7.3686408e-13
        66   60.807986          26396   358            365            857            5              24811          7.4255187e-13
        67   62.21851           26820   360            366            867            8              25219          7.4808349e-13
        68   63.680966          27247   362            366            875            12             25632          7.5362323e-13
        69   65.165247          27685   363            369            885            17             26051          7.59175e-13  
        70   66.770435          28098   363            373            897            17             26448          7.6461678e-13
        71   68.308372          28549   364            373            910            21             26881          7.7049069e-13
        72   69.903246          28952   365            373            922            25             27267          7.7602293e-13
        73   71.549415          29400   366            376            938            28             27692          7.8206578e-13
        74   73.239397          29819   366            376            945            33             28099          7.8839002e-13
        75   74.924314          30244   369            377            962            37             28499          7.9494913e-13
        76   76.680223          30678   371            378            973            41             28915          8.0172595e-13
        77   78.475861          31092   372            378            986            44             29312          8.0866277e-13
        78   80.349736          31523   374            379            998            55             29717          8.1587752e-13
        79   82.246559          31955   377            381            1013           59             30125          8.2403155e-13
        80   84.290783          32377   379            383            1026           65             30524          8.3251951e-13
        81   86.276308          32799   381            384            1044           69             30921          8.4195752e-13
        82   88.292066          33250   381            384            1067           74             31344          8.5200592e-13
        83   90.35645           33677   383            384            1088           82             31740          8.6232671e-13
        84   92.378153          34093   384            384            1119           83             32123          8.7337115e-13
        85   94.47301           34517   384            384            1133           93             32523          8.8440086e-13
        86   96.563546          34951   384            384            1161           101            32921          8.9580893e-13
        87   98.690494          35370   386            384            1194           107            33299          9.0719292e-13
        88   100.85643          35812   386            384            1227           110            33705          9.1893144e-13
        89   103.0721           36219   387            385            1254           117            34076          9.3077247e-13
        90   105.47086          36667   388            385            1297           119            34478          9.4337337e-13
        91   107.78239          37069   388            385            1335           121            34840          9.5652572e-13
        92   110.15578          37521   389            385            1372           128            35247          9.7025556e-13
        93   112.58521          37929   389            387            1410           134            35609          9.844269e-13 
        94   115.02298          38361   390            387            1452           140            35992          9.9928954e-13
        95   117.52594          38766   390            387            1485           148            36356          1.0146191e-12
        96   120.05069          39205   391            388            1526           161            36739          1.0307054e-12
        97   122.56768          39625   391            388            1576           168            37102          1.0470232e-12
        98   125.1578           40043   392            388            1618           175            37470          1.0634089e-12
        99   127.78544          40462   394            388            1658           186            37836          1.080154e-12 
       100   130.52628          40873   394            388            1701           193            38197          1.0970644e-12
       101   133.21813          41306   395            388            1754           202            38567          1.1142552e-12
       102   135.93608          41712   395            388            1791           215            38923          1.1311266e-12
       103   138.79881          42140   395            389            1848           221            39287          1.1479417e-12
       104   141.70258          42530   396            390            1901           228            39615          1.1657087e-12
       105   144.64783          42965   397            391            1934           241            40002          1.183788e-12 
       106   147.71312          43355   397            391            1991           254            40322          1.2018233e-12
       107   150.80077          43775   397            391            2037           266            40684          1.2213133e-12
       108   153.95743          44174   398            392            2089           275            41020          1.2411274e-12
       109   157.14988          44595   398            392            2152           284            41369          1.2619856e-12
       110   160.63348          44989   398            392            2202           297            41700          1.2831426e-12
       111   163.89124          45387   398            393            2260           308            42028          1.3038566e-12
       112   167.17802          45786   399            394            2324           321            42348          1.3244533e-12
       113   170.51655          46193   399            395            2393           327            42679          1.3451912e-12
       114   173.93542          46603   400            396            2465           336            43006          1.365728e-12 
       115   177.37969          46994   401            396            2512           347            43338          1.3860196e-12
       116   180.92074          47387   401            396            2572           359            43659          1.4061774e-12
       117   184.56145          47785   402            397            2632           371            43983          1.4267098e-12
       118   188.29196          48168   402            399            2696           380            44291          1.4473059e-12
       119   192.0716           48606   403            399            2774           395            44635          1.4690576e-12
       120   196.0439           48987   404            399            2844           401            44939          1.4909487e-12
       121   199.96609          49381   404            401            2922           413            45241          1.5132567e-12
       122   203.94395          49807   404            402            3003           424            45574          1.5359838e-12
       123   207.98075          50218   405            402            3076           435            45900          1.5586996e-12
       124   212.09066          50601   405            402            3152           445            46197          1.5813014e-12
       125   216.2192           50992   405            403            3223           453            46508          1.6036058e-12
       126   220.42355          51409   409            404            3319           462            46815          1.6256757e-12
       127   224.72076          51816   410            406            3393           470            47137          1.6471333e-12
       128   229.10358          52220   412            406            3474           475            47453          1.6686906e-12
       129   233.53366          52625   412            407            3573           477            47756          1.6903191e-12
       130   238.1597           53003   413            408            3660           479            48043          1.7118045e-12
       131   242.76532          53442   413            409            3757           488            48375          1.7342542e-12
       132   247.44219          53839   416            409            3847           495            48672          1.7563519e-12
       133   252.17635          54228   417            409            3937           510            48955          1.7792323e-12
       134   256.98106          54645   419            409            4020           524            49273          1.8025388e-12
       135   261.84987          55056   420            409            4109           542            49576          1.8262485e-12
       136   266.79893          55463   421            409            4199           559            49875          1.8502972e-12
       137   271.81033          55878   421            409            4287           578            50183          1.8740483e-12
       138   276.86046          56243   421            410            4344           602            50466          1.8979153e-12
       139   282.02781          56633   422            410            4430           631            50740          1.9208795e-12
       140   287.39735          57048   424            410            4503           667            51044          1.9442196e-12
       141   292.68207          57463   428            411            4593           690            51341          1.9673441e-12
       142   298.05676          57862   430            411            4651           729            51641          1.990539e-12 
       143   303.53155          58273   430            413            4725           762            51943          2.013686e-12 
       144   309.09218          58690   432            413            4811           792            52242          2.0370003e-12
       145   314.71543          59108   432            413            4900           814            52549          2.0611802e-12
       146   320.46749          59531   433            413            4987           845            52853          2.0846744e-12
       147   326.27421          59969   435            413            5077           872            53172          2.10938e-12  
       148   332.20544          60374   436            413            5156           909            53460          2.1343634e-12
       149   338.20039          60811   437            412            5265           931            53766          2.160048e-12 
       150   344.40596          61261   437            412            5352           953            54107          2.1862495e-12
       151   350.57539          61700   436            412            5451           977            54424          2.2130377e-12
       152   356.82744          62141   437            413            5555           1002           54734          2.2409517e-12
       153   363.11349          62587   436            413            5658           1033           55047          2.2698041e-12
       154   369.48924          63065   436            413            5784           1062           55370          2.2985589e-12
       155   375.94159          63494   436            412            5867           1107           55672          2.32764e-12  
       156   382.51838          63967   436            412            5983           1141           55995          2.3571362e-12
       157   389.20179          64413   436            412            6063           1190           56312          2.3876077e-12
       158   395.98702          64878   435            412            6162           1246           56623          2.4184158e-12
       159   402.88296          65364   435            412            6279           1282           56956          2.4506665e-12
       160   410.01441          65811   435            412            6386           1328           57250          2.4839128e-12
       161   417.12084          66320   435            412            6514           1362           57597          2.5183987e-12
       162   424.3277           66801   435            412            6641           1411           57902          2.5539365e-12
       163   431.61058          67324   435            412            6776           1457           58244          2.5907336e-12
       164   438.99853          67814   435            412            6902           1511           58554          2.628197e-12 
       165   446.48561          68302   435            412            7029           1557           58869          2.6665172e-12
       166   454.06904          68824   435            412            7171           1613           59193          2.7053738e-12
       167   461.77204          69330   435            411            7304           1668           59512          2.7445558e-12
       168   469.54889          69852   434            411            7422           1741           59844          2.7837248e-12
       169   477.44974          70364   434            410            7543           1802           60175          2.8234477e-12
       170   485.61289          70873   433            408            7681           1866           60485          2.8647109e-12
       171   493.74689          71446   431            408            7828           1934           60845          2.9070684e-12
       172   502.04293          71944   431            408            7959           1994           61152          2.9511706e-12
       173   510.38663          72509   431            407            8141           2047           61483          2.9970398e-12
       174   518.8615           73063   432            406            8300           2102           61823          3.0440249e-12
       175   527.43045          73549   431            406            8418           2163           62131          3.0921995e-12
       176   536.17845          74109   431            406            8574           2233           62465          3.1417269e-12
       177   545.01526          74667   430            406            8743           2304           62784          3.1912578e-12
       178   553.92793          75221   430            405            8907           2362           63117          3.241829e-12 
       179   562.95689          75771   429            405            9065           2432           63440          3.2943944e-12
       180   572.30234          76338   428            403            9242           2496           63769          3.3489527e-12
       181   581.64385          76895   428            402            9405           2569           64091          3.4055508e-12
       182   591.12509          77453   428            402            9552           2648           64423          3.4654142e-12
       183   600.73219          78050   428            402            9767           2709           64744          3.5291554e-12
       184   610.48652          78660   428            402            9977           2784           65069          3.5953952e-12
       185   620.40436          79233   428            401            10168          2851           65385          3.6642857e-12
       186   630.46482          79852   428            400            10397          2912           65715          3.7367873e-12
       187   640.6576           80460   428            399            10639          2964           66030          3.8135247e-12
       188   651.00076          81079   428            399            10899          3031           66322          3.8937122e-12
       189   661.46186          81724   428            397            11157          3086           66656          3.9813709e-12
       190   672.30033          82402   428            397            11467          3161           66949          4.0765305e-12
       191   683.10576          83079   427            396            11784          3221           67251          4.1811531e-12
       192   694.12314          83797   427            395            12109          3302           67564          4.2957162e-12
       193   705.27293          84525   426            395            12476          3372           67856          4.4186822e-12
       194   716.64802          85280   425            393            12847          3448           68167          4.545443e-12 
       195   728.15798          86037   425            392            13245          3511           68464          4.6792609e-12
       196   739.87425          86811   425            392            13644          3596           68754          4.8155096e-12
       197   751.83025          87583   425            389            14081          3655           69033          4.952743e-12 
       198   764.04664          88400   423            388            14501          3735           69353          5.0843376e-12
       199   776.40023          89185   422            386            14933          3820           69624          5.2215753e-12
       200   789.13651          89943   422            386            15344          3902           69889          5.3672161e-12
       201   801.86959          90788   422            386            15806          3972           70202          5.5084615e-12
       202   814.7576           91599   422            382            16270          4053           70472          5.6564728e-12
       203   827.76644          92418   422            382            16738          4137           70739          5.805252e-12 
       204   841.01031          93268   422            381            17219          4219           71027          5.9516044e-12
       205   854.42575          94080   422            380            17688          4305           71285          6.0974442e-12
       206   867.99695          94907   422            380            18107          4433           71565          6.2512128e-12
       207   881.7128           95780   422            377            18581          4568           71832          6.4072879e-12
       208   895.60488          96648   422            377            19084          4683           72082          6.5714325e-12
       209   909.66045          97526   422            375            19579          4818           72332          6.7346162e-12
       210   924.07313          98411   422            374            20067          4954           72594          6.9168976e-12
       211   938.32411          99283   422            372            20569          5093           72827          7.0777996e-12
       212   952.70835         100210   422            370            21092          5254           73072          7.2646552e-12
       213   967.18862         101101   421            370            21600          5397           73313          7.438284e-12 
       214   981.80513         102003   419            369            22142          5537           73536          7.6201284e-12
       215   996.53937         102922   417            369            22661          5704           73771          7.7940657e-12
       216   1011.3506         103932   416            369            23270          5880           73997          8.0001622e-12
       217   1026.1875         104875   414            369            23813          6077           74202          8.1999492e-12
       218   1041.1575         105821   413            367            24354          6279           74408          8.3929698e-12
       219   1056.217          106805   410            366            24959          6464           74606          8.6033784e-12
       220   1071.5722         107759   409            365            25530          6669           74786          8.796515e-12 
       221   1086.8098         108745   402            365            26145          6870           74963          9.0096986e-12
       222   1102.1375         109729   401            364            26738          7080           75146          9.2176105e-12
       223   1117.5504         110723   400            360            27376          7267           75320          9.4380422e-12
       224   1133.1208         111643   400            358            27944          7459           75482          9.6328147e-12
       225   1148.7618         112629   396            353            28603          7666           75611          9.838155e-12 
       226   1164.4943         113609   393            349            29255          7858           75754          1.0051094e-11
       227   1180.3418         114527   392            348            29841          8055           75891          1.0225352e-11
       228   1196.2869         115502   389            347            30509          8245           76012          1.0428419e-11
       229   1212.2754         116468   385            342            31156          8450           76135          1.06211e-11  
       230   1228.6132         117335   383            336            31743          8646           76227          1.0800909e-11
       231   1244.8064         118217   379            332            32321          8845           76340          1.0959726e-11
       232   1261.0452         119042   378            326            32858          9051           76429          1.1104762e-11
       233   1277.3947         119903   375            318            33443          9254           76513          1.1263565e-11
       234   1293.7964         120701   369            314            33947          9478           76593          1.1396248e-11
       235   1310.3014         121440   365            311            34403          9684           76677          1.1498511e-11
       236   1326.8654         122171   361            307            34845          9919           76739          1.1610529e-11
       237   1343.5319         122870   355            301            35242          10161          76811          1.1707149e-11
       238   1360.2679         123577   349            298            35644          10420          76866          1.180251e-11 
       239   1377.1312         124319   338            292            36094          10674          76921          1.1898154e-11
       240   1394.3354         124949   335            287            36403          10931          76993          1.196665e-11 
       241   1411.3411         125547   332            280            36680          11204          77051          1.2010982e-11
       242   1428.3486         126192   326            267            36993          11513          77093          1.2074074e-11
       243   1445.4504         126723   322            257            37170          11835          77139          1.2116163e-11
       244   1462.6601         127398   318            252            37547          12102          77179          1.2173011e-11
       245   1479.9038         127955   305            245            37764          12415          77226          1.2212935e-11
       246   1497.3026         128517   299            241            37992          12708          77277          1.2237232e-11
       247   1514.7362         129024   289            235            38151          13036          77313          1.22579e-11  
       248   1532.189          129542   275            226            38342          13356          77343          1.227242e-11 
       249   1549.7182         130060   268            219            38562          13640          77371          1.2294655e-11
       250   1567.5606         130625   253            215            38792          13958          77407          1.2319746e-11
       251   1585.2563         131031   248            213            38870          14249          77451          1.2299102e-11
       252   1602.9533         131539   241            203            39038          14564          77493          1.2313103e-11
       253   1620.6892         132020   233            199            39149          14904          77535          1.2326291e-11
       254   1638.5535         132492   221            190            39294          15212          77575          1.233196e-11 
       255   1656.4891         132873   212            183            39337          15527          77614          1.2306779e-11
       256   1674.52           133385   202            176            39500          15852          77655          1.2297551e-11
       257   1692.6158         133785   197            169            39551          16181          77687          1.2303723e-11
       258   1710.6983         134293   191            163            39702          16523          77714          1.2310117e-11
       259   1728.9178         134775   182            149            39848          16850          77746          1.2327127e-11
       260   1747.4929         135165   175            143            39917          17144          77786          1.23023e-11  
       261   1765.7518         135597   171            135            39972          17496          77823          1.2303351e-11
       262   1784.1028         136045   162            128            40082          17818          77855          1.2306072e-11
       263   1802.5037         136429   152            117            40135          18129          77896          1.2286125e-11
       264   1820.9551         136886   148            110            40211          18479          77938          1.2261934e-11
       265   1839.5099         137338   136            105            40310          18825          77962          1.2273822e-11
       266   1858.1181         137730   129            99             40329          19164          78009          1.2275929e-11
       267   1876.7552         138066   124            94             40305          19495          78048          1.2252324e-11
       268   1895.4878         138505   119            88             40363          19853          78082          1.2243459e-11
       269   1914.2909         138992   113            82             40496          20181          78120          1.2246321e-11
       270   1933.4746         139360   106            77             40467          20550          78160          1.223941e-11 
       271   1952.4164         139786   100            73             40566          20857          78190          1.2239445e-11
       272   1971.4727         140140   97             69             40585          21163          78226          1.2223342e-11
       273   1990.5696         140543   94             65             40609          21506          78269          1.2226425e-11
       274   2009.706          140964   94             62             40694          21801          78313          1.221897e-11 
       275   2028.9242         141323   92             59             40689          22144          78339          1.2202225e-11
       276   2048.1964         141734   85             58             40742          22467          78382          1.2189148e-11
       277   2067.4995         142140   82             56             40744          22836          78422          1.2194034e-11
       278   2086.8551         142471   79             53             40669          23210          78460          1.2180772e-11
       279   2106.2311         142872   72             48             40690          23577          78485          1.2179839e-11
       280   2126.0859         143318   65             44             40744          23939          78526          1.2189259e-11
       281   2145.703          143768   62             42             40761          24342          78561          1.2213413e-11
       282   2165.4288         144071   59             42             40693          24683          78594          1.2191297e-11
       283   2185.1975         144466   56             40             40677          25067          78626          1.2203626e-11
       284   2204.9892         144754   52             36             40553          25452          78661          1.2176442e-11
       285   2224.8789         145139   48             33             40507          25861          78690          1.2169092e-11
       286   2244.8095         145528   42             33             40473          26254          78726          1.2166639e-11
       287   2264.7993         145968   41             33             40455          26688          78751          1.2177252e-11
       288   2284.8537         146334   40             33             40348          27125          78788          1.2180322e-11
       289   2304.9529         146614   40             33             40179          27546          78816          1.2187573e-11
       290   2325.4753         147066   37             32             40144          28009          78844          1.2210662e-11
       291   2345.8641         147448   35             30             40001          28506          78876          1.2203915e-11
       292   2366.2941         147846   35             29             39919          28961          78902          1.2212175e-11
       293   2386.7895         148189   35             28             39735          29459          78932          1.2202047e-11
       294   2407.3202         148543   35             27             39614          29905          78962          1.2216565e-11
       295   2427.9648         148847   35             27             39394          30396          78995          1.2210226e-11
       296   2448.6306         149173   35             26             39248          30843          79021          1.2203059e-11
       297   2469.3862         149582   34             25             39138          31333          79052          1.2217075e-11
       298   2490.1756         149947   34             23             38989          31821          79080          1.2219332e-11
       299   2511.0312         150325   34             23             38810          32346          79112          1.2226661e-11
       300   2532.3758         150605   33             23             38582          32831          79136          1.2231164e-11
       301   2553.4456         150919   32             23             38389          33305          79170          1.2226815e-11
       302   2574.5071         151287   32             23             38255          33786          79191          1.2243016e-11
       303   2595.5677         151597   32             22             38081          34237          79225          1.2226682e-11
       304   2616.6797         152065   32             22             38051          34713          79247          1.225491e-11 
       305   2637.76           152467   32             22             37951          35182          79280          1.226848e-11 
       306   2659.05           152712   31             22             37731          35626          79302          1.2281077e-11
       307   2680.3968         153029   31             22             37561          36080          79335          1.2267811e-11
       308   2701.6951         153406   31             22             37462          36535          79356          1.2288809e-11
       309   2723.0682         153690   31             22             37317          36928          79392          1.2272089e-11
       310   2744.7993         154155   31             22             37346          37343          79413          1.231858e-11 
       311   2766.2779         154447   31             22             37217          37732          79445          1.2313141e-11
       312   2787.8517         154795   31             22             37150          38125          79467          1.2338561e-11
       313   2809.4445         155139   31             22             37049          38540          79497          1.2344347e-11
       314   2831.1407         155430   31             22             36864          38991          79522          1.2360949e-11
       315   2852.9395         155793   31             22             36804          39383          79553          1.2356166e-11
       316   2874.8155         156159   31             22             36776          39749          79581          1.2369225e-11
       317   2896.7162         156496   31             22             36705          40129          79609          1.2380292e-11
       318   2918.816          156750   31             22             36570          40488          79639          1.2372109e-11
       319   2940.8497         157148   31             22             36573          40859          79663          1.2412453e-11
       320   2963.2925         157459   31             22             36471          41242          79693          1.239977e-11 
Loop time of 2963.29 on 16 procs for 320 steps with 157459 atoms

97.8% CPU use with 16 MPI tasks x 1 OpenMP threads

MPI task timing breakdown:
Section |  min time  |  avg time  |  max time  |%varavg| %total
---------------------------------------------------------------
Pair    | 781.83     | 901.33     | 1071.6     | 290.1 | 30.42
Neigh   | 523.66     | 634.78     | 886.86     | 417.1 | 21.42
Comm    | 333.13     | 402.11     | 477.84     | 243.7 | 13.57
Output  | 32.825     | 32.825     | 32.826     |   0.0 |  1.11
Modify  | 481.86     | 978.3      | 1265.7     | 691.2 | 33.01
Other   |            | 13.94      |            |       |  0.47

Nlocal:        9841.19 ave       14298 max        8154 min
Histogram: 8 2 2 0 1 1 0 0 0 2
Nghost:        7599.31 ave        9842 max        6433 min
Histogram: 5 4 1 0 2 0 0 2 0 2
Neighs:        96594.9 ave      110316 max       86855 min
Histogram: 1 2 5 1 1 0 3 2 0 1

Total # of neighbors = 1545518
Ave neighs/atom = 9.8153678
Neighbor list builds = 28093
Dangerous builds = 27773

Total wall time: 0:49:41
