LAMMPS (23 Jun 2022 - Update 4)
  using 1 OpenMP thread(s) per MPI task
package omp 0
using multi-threaded neighbor list subroutines
#-----------------------------------------------------------------------------#
#                NUFEB Simulation: Heterotrophic Biofilm Growth               #
#-----------------------------------------------------------------------------#


#-----------------------------System Settings---------------------------------#

units si                                    # using si units (m, s, kg)
atom_style      coccus                      # using nufeb coccus atom style
atom_modify     map array sort 10 0         # map array - find atoms using indices
		                            # sort every 10

boundary        pp pp ff                    # periodic boundaries in x and y
                                            # fixed boundary in z

newton          off                         # forces between local and ghost
                                            # atoms are computed in each
					     # processor without communication

processors      * * 1                       # processor grid

comm_modify     vel yes                     # communicate velocities for ghost atoms

read_data       atom_ch.in	             # read atom.in file which defines domain size
Reading data file ...
  orthogonal box = (0 0 0) to (6e-05 6e-05 6e-05)
  4 by 4 by 1 MPI processor grid
  reading atoms ...
  150 atoms
  read_data CPU = 0.022 seconds
                                            # and initial atoms


#--------------------Microbes and Functional Groups-------------------------#

group           CROSS1   type 1               # assign type 1,2 atoms to CROSS group
50 atoms in group CROSS1
group           CROSS2   type 2
50 atoms in group CROSS2
group		CHEATER  type 3
50 atoms in group CHEATER
group           dead     type 4
0 atoms in group dead
group		EPS	 type 5
0 atoms in group EPS

neighbor        5e-7 bin                   # setting neighbour skin distance and style

neigh_modify    check yes                  # rebuild neighbour list if any atom
                                           # had moved more than half the skin distance


#--------------------------Mesh Grid and Substrates--------------------------#

# defining grid sytle, substrate names, and grid size
grid_style      nufeb/chemostat 3 sub metab1 metab2 5e-6

# set diffusion boundary conditions and initial concentrations (liquid:kg/m3)
grid_modify     set sub      pp pp nd  1.8e-4
No /omp style for force computation currently active
grid_modify     set metab1   pp pp nd  1e-4
No /omp style for force computation currently active
grid_modify     set metab2   pp pp nd  1e-4
No /omp style for force computation currently active


#--------------------------Biological Processes-------------------------------#

# heterotrophs growth
fix growth_cross1 CROSS1 nufeb/growth/cross1 sub 3.5e-5 metab2 4e-3 metab1 growth 0.009 yield 0.6 decay 2.6e-6 metab1_exp 20 epsyield 0.12 epsdens 30

fix growth_cross2 CROSS2 nufeb/growth/cross2 sub 3.5e-5 metab1 4e-3 metab2 growth 0.009 yield 0.6 decay 2.6e-6 metab2_exp 20 epsyield 0.12 epsdens 30

fix growth_cheater CHEATER nufeb/growth/cheater sub 3.5e-5 metab1 1e-3 metab2 1e-3 growth 0.009 yield 0.6 decay 2.6e-6

# heterotrophs division, division diameter: 1.36e-6
fix div1 CROSS1 nufeb/division/coccus 1.36e-6 632
fix div2 CROSS2 nufeb/division/coccus 1.36e-6 2222
fix div3 CHEATER nufeb/division/coccus 1.36e-6 4870

fix death1 CROSS1 nufeb/death/diameter dead 5.43e-7
fix death2 CROSS2 nufeb/death/diameter dead 5.43e-7
fix death3 CHEATER nufeb/death/diameter dead 5.43e-7

# EPS secretion from heterotrophs
fix eps1 CROSS1 nufeb/eps_secretion 5 EPS 1.1 30 8576
fix eps2 CROSS2 nufeb/eps_secretion 5 EPS 1.1 30 13340

#---------------------------Physical Processes--------------------------------#

pair_style  gran/hooke/history 1e-4 NULL 1e-5 NULL 0.0 0    # pairwise interaction
pair_coeff  * *                                             # between atoms

# pairwise interaction between z-wall and atoms
fix wall all wall/gran hooke/history 1e-3 NULL 1e-4 NULL 0 0 zplane 0.0 1e-04

fix vis all viscous 1e-5                                    # viscous damping force

fix grav all gravity 9.81 vector 0.0 0.0 -1.0

fix nve all nve/limit 1e-7                                  # NVE integration with
                                                            # maximum distance limit


#---------------------------Post-Physical Processes---------------------------#

fix coeff_sub all nufeb/diffusion_coeff sub ratio 0.8       # defining diffusion coeff in the biofilm
fix coeff_metab1 all nufeb/diffusion_coeff metab1 ratio 0.8    # region is 80% of the value in liquid
fix coeff_metab2 all nufeb/diffusion_coeff metab2 ratio 0.8

#---------------------------Chemical Processes---------------------------------#

fix diff_sub all nufeb/diffusion_reaction sub 1e-9        # diffusion reaction for updating
fix diff_metab1 all nufeb/diffusion_reaction metab1 4e-9     # distribusion of substrate concentration
fix diff_metab2 all nufeb/diffusion_reaction metab2 4e-9

#--------------------------Computations and Outputs----------------------------#

variable mass equal "mass(all)"                             # total mass
variable ncross1 equal "count(CROSS1)"                      # total # of CROSS1
variable ncross2 equal "count(CROSS2)"                      # total # of CROSS2
variable ncheater equal "count(CHEATER)"
variable ndead equal "count(dead)"
variable neps equal "count(EPS)"

shell mkdir vtk_EPS_ch                                            # dump vtk files to /vtk folder
dump du1 all vtk 10 vtk_EPS_ch/dump*.vtu id type diameter         # require build NUFEB with vtk option
dump du2 all grid/vtk 10 vtk_EPS_ch/dump_%_*.vti con rea den gro

#dump du3 all movie 10 movie.avi type diameter view 80 60    # dump video
#dump_modify du3 acolor 1 blue acolor 2 lightgrey framerate 10


                                                            # dump hdf5 files to /hdf5 folder
#shell mkdir hdf5                                           # require build NUFEB with hdf5 option
#dump du3 all nufeb/hdf5 10 dump.h5 id type x y z vx vy vz fx fy fz radius conc reac

thermo_style custom step cpu atoms v_ncross1 v_ncross2 v_ncheater v_ndead v_neps v_mass     # screen and log outputs
thermo 1
thermo_modify   lost ignore

#-----------------------------------Run----------------------------------------#

# issue run command, define timesteps for physical (pairdt) and chemical (diffdt) processes
run_style nufeb diffdt 1e-4 difftol 1e-6 pairdt 1e-2 pairtol 1 pairmax 1000 diffmax 5000

timestep 12000                                               # define biological timesteps (1000s)

run 320                                                    # growing biofilm for 900x1000s
Generated 0 of 6 mixed pair_coeff terms from geometric mixing rule
Last active /omp style is pair_style gran/hooke/history/omp
Neighbor list info ...
  update every 1 steps, delay 10 steps, check yes
  max neighbors/atom: 2000, page size: 100000
  master list distance cutoff = 2.49e-06
  ghost atom cutoff = 2.49e-06
  binsize = 1.245e-06, bins = 49 49 49
  1 neighbor lists, perpetual/occasional/extra = 1 0 0
  (1) pair gran/hooke/history/omp, perpetual
      attributes: half, newton off, size, history, omp
      pair build: half/size/bin/newtoff/omp
      stencil: full/bin/3d
      bin: standard
Per MPI rank memory allocation (min/avg/max) = 11.02 | 11.02 | 11.02 Mbytes
   Step          CPU          Atoms      v_ncross1      v_ncross2      v_ncheater      v_ndead         v_neps         v_mass    
         0   0                    150   50             50             50             0              0              1.3295396e-13
         1   0.38497083           432   90             85             86             0              171            1.7274845e-13
         2   0.76752371           791   119            125            136            0              411            1.9588798e-13
         3   1.0919332           1123   129            145            180            0              669            2.1534871e-13
         4   1.3943206           1445   139            158            200            0              948            2.3343237e-13
         5   1.6240713           1762   143            162            219            0              1238           2.5084035e-13
         6   1.7837729           2091   149            169            240            0              1533           2.6783655e-13
         7   1.9307091           2428   155            177            257            0              1839           2.845631e-13 
         8   2.0883809           2775   164            182            276            0              2153           3.0094542e-13
         9   2.2359394           3136   170            194            292            0              2480           3.1703907e-13
        10   2.3853793           3509   179            200            310            0              2820           3.3301706e-13
        11   2.5124942           3892   186            207            334            0              3165           3.4866071e-13
        12   2.6467644           4272   189            215            349            0              3519           3.6412867e-13
        13   2.7669698           4656   191            220            369            0              3876           3.7938259e-13
        14   2.8773424           5039   196            226            385            0              4232           3.9403097e-13
        15   3.0010066           5424   199            230            402            0              4593           4.084116e-13 
        16   3.0913668           5796   205            232            427            0              4932           4.2219391e-13
        17   3.1755218           6187   212            241            443            0              5291           4.3574145e-13
        18   3.2667912           6589   217            251            465            0              5656           4.487626e-13 
        19   3.3776316           6981   220            257            479            0              6025           4.6146108e-13
        20   15.015064           7361   223            260            493            0              6385           4.7367485e-13
        21   15.097841           7770   231            263            508            0              6768           4.8568664e-13
        22   15.218665           8160   235            268            519            0              7138           4.9718759e-13
        23   15.330531           8546   237            272            532            0              7505           5.0820307e-13
        24   15.419584           8957   241            278            547            0              7891           5.1894133e-13
        25   15.525495           9351   244            281            560            0              8266           5.292745e-13 
        26   15.624678           9754   250            282            575            0              8647           5.3948794e-13
        27   15.715442          10158   251            285            593            0              9029           5.4914449e-13
        28   15.819514          10547   254            285            613            0              9395           5.5841392e-13
        29   15.951109          10952   256            293            624            0              9779           5.6747676e-13
        30   30.58276           11334   257            295            638            0              10144          5.7586715e-13
        31   30.698557          11733   263            296            651            0              10523          5.8417838e-13
        32   30.81853           12119   267            297            664            0              10891          5.9215247e-13
        33   30.964208          12511   273            298            668            0              11272          5.997869e-13 
        34   31.103579          12909   281            303            677            0              11648          6.0708415e-13
        35   31.231394          13309   284            305            688            0              12032          6.1425459e-13
        36   31.406829          13711   286            307            695            0              12423          6.209185e-13 
        37   31.594348          14103   289            309            702            0              12803          6.2752006e-13
        38   31.790485          14507   290            311            714            0              13192          6.3399563e-13
        39   32.026733          14918   294            315            721            0              13588          6.4031543e-13
        40   32.385638          15317   297            319            726            0              13975          6.4642836e-13
        41   32.947784          15708   300            321            735            0              14352          6.5259665e-13
        42   33.529161          16132   305            324            749            0              14754          6.5915944e-13
        43   34.411477          16539   307            324            760            0              15148          6.6516365e-13
        44   35.317664          16933   310            327            765            0              15531          6.7117265e-13
        45   36.232291          17355   311            330            776            0              15938          6.7726309e-13
        46   37.152416          17730   312            331            788            0              16299          6.8322778e-13
        47   38.10435           18158   313            331            798            0              16716          6.893909e-13 
        48   39.085498          18553   313            331            810            0              17099          6.9541293e-13
        49   40.07402           18972   316            336            828            0              17492          7.0159729e-13
        50   41.150013          19382   320            337            842            0              17883          7.0792684e-13
        51   42.197419          19793   324            340            853            0              18276          7.1438025e-13
        52   43.248044          20197   325            341            866            0              18665          7.2090455e-13
        53   44.317019          20618   327            344            883            0              19064          7.2740761e-13
        54   45.386157          21010   329            345            899            0              19437          7.3371896e-13
        55   46.491725          21426   331            347            908            1              19839          7.3986464e-13
        56   47.60372           21826   333            347            921            1              20224          7.4605478e-13
        57   48.750672          22238   334            348            937            1              20618          7.5167622e-13
        58   49.910514          22658   335            350            949            1              21023          7.5772186e-13
        59   51.084954          23065   337            350            962            1              21415          7.635267e-13 
        60   52.35709           23464   339            351            974            2              21798          7.6924698e-13
        61   53.608023          23882   340            352            992            2              22196          7.7486591e-13
        62   54.854899          24283   342            356            1006           2              22577          7.8024207e-13
        63   56.139246          24707   345            357            1024           5              22976          7.8576698e-13
        64   57.438681          25128   345            361            1032           6              23384          7.9120045e-13
        65   58.790208          25519   347            362            1043           8              23759          7.9623607e-13
        66   60.126727          25938   349            363            1053           9              24164          8.0184408e-13
        67   61.556229          26349   350            364            1061           10             24564          8.0709331e-13
        68   63.027931          26766   350            365            1067           13             24971          8.1289792e-13
        69   64.562949          27175   350            366            1085           17             25357          8.1889025e-13
        70   66.20675           27599   350            367            1096           23             25763          8.2560432e-13
        71   67.805509          27996   351            367            1112           25             26141          8.32588e-13  
        72   69.414656          28419   353            367            1127           32             26540          8.4032955e-13
        73   71.073773          28830   354            368            1145           40             26923          8.4801511e-13
        74   72.74381           29257   358            370            1158           45             27326          8.5647105e-13
        75   74.413437          29673   360            372            1186           50             27705          8.6489991e-13
        76   76.103291          30092   363            373            1205           53             28098          8.7340776e-13
        77   77.825049          30526   365            378            1224           57             28502          8.8165991e-13
        78   79.553521          30962   365            379            1247           63             28908          8.8989265e-13
        79   81.333635          31387   366            380            1269           69             29303          8.977738e-13 
        80   83.212581          31790   366            380            1285           76             29683          9.0568443e-13
        81   85.066586          32225   368            383            1297           83             30094          9.134633e-13 
        82   86.987614          32632   369            383            1324           89             30467          9.2150587e-13
        83   88.976278          33090   371            385            1344           98             30892          9.2951273e-13
        84   91.022825          33480   371            385            1369           105            31250          9.3784945e-13
        85   93.104436          33924   371            387            1392           114            31660          9.4730119e-13
        86   95.279837          34341   371            389            1412           122            32047          9.5755869e-13
        87   97.450784          34765   372            389            1444           132            32428          9.6838653e-13
        88   99.728702          35203   373            390            1481           139            32820          9.8012052e-13
        89   102.03416          35626   374            391            1520           144            33197          9.9308376e-13
        90   104.49373          36054   374            392            1562           152            33574          1.0067223e-12
        91   106.84741          36471   375            394            1599           162            33941          1.0213801e-12
        92   109.23356          36915   376            395            1641           176            34327          1.0363969e-12
        93   111.6325           37318   376            395            1684           190            34673          1.0515196e-12
        94   114.05108          37721   376            397            1712           204            35032          1.0666979e-12
        95   116.50023          38147   376            399            1754           217            35401          1.0815674e-12
        96   119.04411          38580   376            401            1808           225            35770          1.0963545e-12
        97   121.65045          38999   377            401            1853           236            36132          1.1114961e-12
        98   124.29084          39410   377            403            1911           239            36480          1.1268011e-12
        99   127.00815          39824   377            405            1956           246            36840          1.1421765e-12
       100   129.94755          40236   377            405            2000           256            37198          1.1578335e-12
       101   132.83502          40647   377            406            2050           269            37545          1.1743481e-12
       102   135.73303          41071   377            407            2100           282            37905          1.1916417e-12
       103   138.67061          41501   377            409            2169           287            38259          1.2094496e-12
       104   141.66782          41912   378            409            2223           288            38614          1.2274283e-12
       105   144.66626          42367   378            412            2301           298            38978          1.2456413e-12
       106   147.72596          42776   378            413            2352           306            39327          1.2634261e-12
       107   150.77273          43175   378            414            2403           310            39670          1.2812186e-12
       108   153.92619          43617   378            414            2473           316            40036          1.2983793e-12
       109   157.13682          44031   378            414            2533           320            40386          1.3154316e-12
       110   160.62028          44439   378            415            2588           326            40732          1.3324324e-12
       111   164.05155          44863   378            416            2651           332            41086          1.3495468e-12
       112   167.52713          45285   378            417            2708           346            41436          1.3678355e-12
       113   171.08309          45708   378            418            2773           351            41788          1.3863979e-12
       114   174.7098           46133   378            419            2828           362            42146          1.40628e-12  
       115   178.40772          46542   378            419            2889           376            42480          1.4266788e-12
       116   182.18093          46980   378            419            2959           383            42841          1.44795e-12  
       117   185.9942           47398   378            419            3033           395            43173          1.4697379e-12
       118   189.90579          47790   378            419            3092           407            43494          1.4913773e-12
       119   193.86743          48232   378            419            3155           422            43858          1.5132918e-12
       120   198.04896          48662   378            420            3239           436            44189          1.5351255e-12
       121   202.19996          49098   378            422            3308           449            44541          1.5571821e-12
       122   206.35262          49501   378            422            3364           465            44872          1.5792473e-12
       123   210.66462          49923   378            422            3442           483            45198          1.6010804e-12
       124   215.05427          50347   378            423            3507           504            45535          1.6243513e-12
       125   219.49845          50779   378            424            3584           528            45865          1.6481985e-12
       126   224.02182          51180   378            424            3651           548            46179          1.6719644e-12
       127   228.61975          51631   378            424            3745           570            46514          1.6966581e-12
       128   233.29755          52004   378            425            3805           591            46805          1.7217874e-12
       129   238.03931          52455   380            425            3894           618            47138          1.7480715e-12
       130   243.00145          52861   380            426            3972           646            47437          1.7743424e-12
       131   247.90328          53250   380            427            4038           672            47733          1.8005248e-12
       132   252.91719          53683   380            428            4131           697            48047          1.8265925e-12
       133   258.02549          54068   382            429            4205           718            48334          1.852745e-12 
       134   263.21376          54497   382            431            4303           735            48646          1.879107e-12 
       135   268.47084          54909   382            431            4384           766            48946          1.9046179e-12
       136   273.82204          55318   383            432            4474           785            49244          1.9297326e-12
       137   279.29664          55752   384            433            4570           807            49558          1.9550459e-12
       138   284.87968          56134   384            433            4637           839            49841          1.9803063e-12
       139   290.5397           56562   387            433            4729           866            50147          2.0066639e-12
       140   296.41544          57005   387            433            4817           896            50472          2.034672e-12 
       141   302.26064          57411   389            432            4907           938            50745          2.0631012e-12
       142   308.20426          57827   389            435            4982           974            51047          2.0931821e-12
       143   314.27193          58285   390            437            5096           1012           51350          2.1243393e-12
       144   320.4108           58744   390            438            5194           1049           51673          2.1560207e-12
       145   326.64876          59163   392            438            5274           1095           51964          2.1874441e-12
       146   332.96865          59608   392            438            5381           1134           52263          2.2188405e-12
       147   339.40613          60036   393            437            5485           1176           52545          2.2493203e-12
       148   345.93379          60504   393            437            5596           1209           52869          2.2800502e-12
       149   352.55381          60933   393            436            5704           1248           53152          2.3102423e-12
       150   359.46194          61392   394            436            5819           1282           53461          2.3413651e-12
       151   366.30293          61813   394            435            5923           1315           53746          2.3730734e-12
       152   373.25344          62286   394            434            6044           1350           54064          2.4064672e-12
       153   380.32325          62730   395            434            6175           1386           54340          2.4407789e-12
       154   387.4856           63192   395            434            6303           1424           54636          2.4762365e-12
       155   394.7437           63657   395            434            6422           1462           54944          2.5130275e-12
       156   402.1386           64129   396            434            6546           1500           55253          2.5500991e-12
       157   409.62223          64585   397            433            6663           1540           55552          2.588133e-12 
       158   417.21132          65060   399            433            6813           1565           55850          2.6262715e-12
       159   424.93083          65530   399            432            6939           1615           56145          2.6649936e-12
       160   432.90713          66026   399            433            7087           1652           56455          2.70501e-12  
       161   440.87862          66525   397            433            7233           1703           56759          2.7467758e-12
       162   448.94404          67048   397            433            7386           1745           57087          2.7902466e-12
       163   457.11909          67556   398            433            7541           1804           57380          2.8367697e-12
       164   465.43576          68052   399            432            7677           1856           57688          2.8841131e-12
       165   473.86903          68561   399            430            7833           1903           57996          2.9331156e-12
       166   482.4779           69099   398            430            7995           1969           58307          2.9833121e-12
       167   491.20243          69651   397            430            8165           2024           58635          3.035167e-12 
       168   500.05976          70136   397            430            8314           2076           58919          3.0875076e-12
       169   509.05251          70713   397            429            8492           2139           59256          3.1422503e-12
       170   518.3795           71233   397            428            8671           2181           59556          3.1997629e-12
       171   527.64464          71802   397            428            8883           2224           59870          3.2597471e-12
       172   537.0805           72382   397            428            9103           2276           60178          3.3234238e-12
       173   546.55405          72979   397            428            9327           2331           60496          3.3898157e-12
       174   556.18279          73575   397            427            9547           2388           60816          3.4591644e-12
       175   565.91772          74138   397            425            9749           2450           61117          3.530418e-12 
       176   575.83927          74730   397            426            9990           2498           61419          3.6042821e-12
       177   585.93992          75378   397            426            10245          2558           61752          3.6806377e-12
       178   596.17147          75991   397            426            10497          2603           62068          3.7626114e-12
       179   606.57694          76629   397            426            10774          2656           62376          3.8514877e-12
       180   617.37477          77281   396            426            11076          2699           62684          3.9491126e-12
       181   628.23082          77994   396            426            11399          2758           63015          4.0549591e-12
       182   639.27569          78681   396            426            11716          2830           63313          4.169909e-12 
       183   650.52204          79418   396            426            12076          2880           63640          4.2923686e-12
       184   662.02529          80176   396            425            12465          2934           63956          4.4202851e-12
       185   673.71651          80953   396            425            12868          3001           64263          4.5537857e-12
       186   685.59445          81737   395            425            13255          3072           64590          4.6903306e-12
       187   697.68441          82486   395            424            13624          3158           64885          4.819897e-12 
       188   709.99407          83317   395            424            14067          3241           65190          4.9656169e-12
       189   722.46358          84093   395            423            14428          3342           65505          5.1038757e-12
       190   735.73285          84932   395            423            14869          3433           65812          5.2515394e-12
       191   748.47276          85778   395            422            15318          3541           66102          5.401723e-12 
       192   761.41842          86586   395            421            15753          3624           66393          5.5531087e-12
       193   774.4464           87454   395            421            16213          3728           66697          5.7038827e-12
       194   787.59678          88276   395            420            16654          3823           66984          5.8585608e-12
       195   800.80579          89154   395            419            17109          3949           67282          6.0266985e-12
       196   814.11356          90028   394            419            17588          4054           67573          6.1884031e-12
       197   827.51033          90907   394            419            18079          4163           67852          6.3490462e-12
       198   840.99459          91847   394            418            18616          4280           68139          6.5231418e-12
       199   854.51755          92723   392            416            19121          4398           68396          6.6987973e-12
       200   868.33003          93645   392            415            19659          4515           68664          6.8879259e-12
       201   882.01118          94540   391            414            20189          4633           68913          7.0601199e-12
       202   895.76485          95520   391            412            20782          4758           69177          7.2570976e-12
       203   909.64513          96499   390            411            21381          4884           69433          7.4445811e-12
       204   923.62782          97475   390            411            21961          5031           69682          7.6404948e-12
       205   937.67642          98404   389            409            22513          5180           69913          7.840023e-12 
       206   951.8281           99385   388            409            23126          5330           70132          8.0504368e-12
       207   966.05359         100386   386            409            23750          5495           70346          8.2612046e-12
       208   980.36355         101369   384            407            24353          5649           70576          8.4595956e-12
       209   994.7828          102331   383            406            24984          5794           70764          8.6706194e-12
       210   1009.5475         103298   383            406            25570          5973           70966          8.8696946e-12
       211   1024.1509         104268   382            404            26197          6142           71143          9.0809611e-12
       212   1038.8167         105282   382            402            26869          6314           71315          9.2878603e-12
       213   1053.5573         106236   380            401            27462          6510           71483          9.5029665e-12
       214   1068.3811         107278   379            398            28155          6703           71643          9.7148571e-12
       215   1083.294          108224   379            395            28767          6886           71797          9.9231233e-12
       216   1098.2914         109248   379            393            29475          7059           71942          1.0133138e-11
       217   1113.3277         110150   377            389            30106          7233           72045          1.0314141e-11
       218   1128.5238         111077   375            387            30716          7435           72164          1.0490981e-11
       219   1143.8221         111956   367            382            31277          7641           72289          1.0661708e-11
       220   1159.4516         112840   362            381            31822          7863           72412          1.0842037e-11
       221   1174.8854         113707   360            373            32383          8078           72513          1.0985245e-11
       222   1190.4212         114510   359            370            32905          8268           72608          1.1117475e-11
       223   1206.0726         115262   357            364            33375          8472           72694          1.1232308e-11
       224   1221.7905         116025   354            360            33870          8676           72765          1.1371706e-11
       225   1237.6136         116778   350            357            34333          8897           72841          1.1497107e-11
       226   1253.5265         117514   342            350            34808          9113           72901          1.1590934e-11
       227   1269.5118         118227   340            341            35231          9337           72978          1.1666355e-11
       228   1285.5453         118985   337            333            35703          9562           73050          1.1770137e-11
       229   1301.6596         119576   332            329            36019          9774           73122          1.1835481e-11
       230   1318.1175         120198   329            325            36370          9996           73178          1.1895557e-11
       231   1334.4001         120867   324            319            36744          10245          73235          1.1984916e-11
       232   1350.7943         121507   316            315            37072          10523          73281          1.2021585e-11
       233   1367.2404         122129   305            306            37402          10793          73323          1.2076688e-11
       234   1383.7529         122617   300            295            37618          11039          73365          1.2107557e-11
       235   1400.3759         123285   296            287            37941          11345          73416          1.2158324e-11
       236   1417.0463         123765   286            279            38106          11639          73455          1.2191391e-11
       237   1433.8113         124324   282            273            38322          11944          73503          1.2216157e-11
       238   1450.6554         124880   272            259            38510          12294          73545          1.2215035e-11
       239   1467.549          125333   265            252            38605          12621          73590          1.2219538e-11
       240   1484.803          125800   259            247            38754          12913          73627          1.2228473e-11
       241   1501.841          126274   254            241            38894          13225          73660          1.2234718e-11
       242   1518.9966         126904   242            230            39150          13568          73714          1.2280036e-11
       243   1536.1733         127314   236            223            39206          13898          73751          1.2253882e-11
       244   1553.464          127795   229            213            39331          14233          73789          1.2252114e-11
       245   1570.8039         128214   222            205            39409          14553          73825          1.2274408e-11
       246   1588.1965         128680   208            198            39494          14914          73866          1.2279506e-11
       247   1605.6499         129142   201            189            39609          15237          73906          1.2254568e-11
       248   1623.2407         129671   198            181            39816          15533          73943          1.2249277e-11
       249   1640.8578         130059   192            173            39862          15851          73981          1.2240498e-11
       250   1658.7828         130416   185            166            39870          16170          74025          1.2234476e-11
       251   1676.5355         130882   180            159            40005          16476          74062          1.2242771e-11
       252   1694.3248         131349   170            155            40119          16797          74108          1.2238427e-11
       253   1712.1567         131767   166            148            40199          17109          74145          1.2209558e-11
       254   1730.0726         132226   162            139            40307          17445          74173          1.2211214e-11
       255   1748.0408         132625   159            134            40369          17747          74216          1.2203266e-11
       256   1766.1108         132911   151            128            40315          18066          74251          1.2179556e-11
       257   1784.1949         133377   142            119            40400          18424          74292          1.2189767e-11
       258   1802.3478         133844   134            115            40526          18732          74337          1.218006e-11 
       259   1820.5961         134309   132            112            40676          19004          74385          1.2168902e-11
       260   1839.2394         134698   129            110            40700          19332          74427          1.216311e-11 
       261   1857.5988         134981   123            102            40647          19656          74453          1.2160377e-11
       262   1876.1481         135428   118            93             40741          19985          74491          1.2153612e-11
       263   1894.6698         135872   114            89             40833          20300          74536          1.2127458e-11
       264   1913.2274         136260   109            88             40857          20628          74578          1.2123436e-11
       265   1931.9091         136618   101            81             40862          20967          74607          1.212623e-11 
       266   1950.652          137053   95             78             40923          21307          74650          1.2137566e-11
       267   1969.4431         137412   91             75             40854          21699          74693          1.2127699e-11
       268   1988.2877         137826   86             71             40850          22088          74731          1.2131948e-11
       269   2007.2196         138231   82             68             40868          22453          74760          1.2127087e-11
       270   2026.5522         138638   80             64             40863          22835          74796          1.2115426e-11
       271   2045.6518         138965   79             59             40732          23258          74837          1.2124832e-11
       272   2064.8698         139256   75             54             40566          23688          74873          1.2096695e-11
       273   2084.0719         139614   68             52             40476          24109          74909          1.2092864e-11
       274   2103.3497         140057   65             51             40473          24523          74945          1.2106232e-11
       275   2122.7281         140519   63             46             40498          24927          74985          1.2109873e-11
       276   2142.1529         140827   61             45             40352          25357          75012          1.2094116e-11
       277   2161.6647         141217   58             44             40286          25778          75051          1.2121126e-11
       278   2181.2505         141534   54             44             40091          26254          75091          1.2116352e-11
       279   2200.9339         141999   51             43             40065          26727          75113          1.2130665e-11
       280   2221.0257         142368   50             39             39928          27199          75152          1.2121142e-11
       281   2240.9102         142774   48             38             39822          27676          75190          1.2123787e-11
       282   2260.8301         143104   45             38             39683          28127          75211          1.2147351e-11
       283   2280.8015         143414   45             37             39518          28564          75250          1.2130797e-11
       284   2300.8584         143821   44             34             39380          29083          75280          1.2135479e-11
       285   2320.9727         144191   42             31             39208          29599          75311          1.2143908e-11
       286   2341.1588         144549   41             30             39039          30096          75343          1.2143689e-11
       287   2361.4305         144855   38             27             38864          30554          75372          1.2150407e-11
       288   2381.7482         145224   37             26             38740          31021          75400          1.2145105e-11
       289   2402.1277         145623   37             26             38612          31515          75433          1.2166623e-11
       290   2422.9081         145928   37             26             38398          32011          75456          1.2158371e-11
       291   2443.4389         146281   37             26             38241          32488          75489          1.216679e-11 
       292   2463.9416         146682   36             25             38105          33000          75516          1.2178696e-11
       293   2484.511          146989   36             24             37949          33436          75544          1.2200042e-11
       294   2505.1578         147319   36             24             37833          33853          75573          1.2215495e-11
       295   2525.9171         147699   36             22             37746          34294          75601          1.2214595e-11
       296   2546.7059         148049   36             22             37627          34734          75630          1.2205777e-11
       297   2567.5122         148378   36             22             37501          35162          75657          1.2233381e-11
       298   2588.4155         148751   34             22             37400          35607          75688          1.2259459e-11
       299   2609.3839         149066   34             22             37243          36054          75713          1.2247384e-11
       300   2630.7589         149437   33             22             37146          36492          75744          1.2264062e-11
       301   2651.8542         149770   33             22             37091          36854          75770          1.2275086e-11
       302   2672.8705         150112   33             22             36995          37264          75798          1.2265665e-11
       303   2693.982          150415   33             22             36879          37655          75826          1.2283137e-11
       304   2715.1187         150755   33             22             36833          38013          75854          1.2305086e-11
       305   2736.3243         151110   33             22             36764          38408          75883          1.2309345e-11
       306   2757.77           151482   32             22             36725          38794          75909          1.2328766e-11
       307   2779.1652         151754   32             22             36633          39128          75939          1.2319114e-11
       308   2800.6131         152181   32             21             36641          39523          75964          1.2363044e-11
       309   2822.0533         152508   32             21             36589          39874          75992          1.2377609e-11
       310   2844.0671         152773   32             21             36472          40230          76018          1.2349517e-11
       311   2865.771          153086   32             21             36403          40583          76047          1.2357776e-11
       312   2887.4286         153412   32             21             36368          40918          76073          1.2350561e-11
       313   2909.1242         153745   32             21             36347          41244          76101          1.2390163e-11
       314   2930.9791         154108   32             21             36345          41579          76131          1.2399982e-11
       315   2953.04           154459   32             20             36317          41932          76158          1.2411434e-11
       316   2975.1252         154853   32             20             36313          42303          76185          1.2437931e-11
       317   2997.297          155169   32             20             36228          42675          76214          1.2427644e-11
       318   3019.6897         155445   31             20             36160          42995          76239          1.2457465e-11
       319   3042.1202         155783   31             20             36139          43325          76268          1.2453515e-11
       320   3064.7566         156068   31             20             36097          43627          76293          1.2451478e-11
Loop time of 3064.76 on 16 procs for 320 steps with 156068 atoms

98.0% CPU use with 16 MPI tasks x 1 OpenMP threads

MPI task timing breakdown:
Section |  min time  |  avg time  |  max time  |%varavg| %total
---------------------------------------------------------------
Pair    | 763.68     | 899.78     | 1087.6     | 287.4 | 29.36
Neigh   | 514.22     | 621.79     | 948.5      | 424.5 | 20.29
Comm    | 365.16     | 421.3      | 515.7      | 212.6 | 13.75
Output  | 32.506     | 32.507     | 32.508     |   0.0 |  1.06
Modify  | 504.14     | 1075.1     | 1361.3     | 651.1 | 35.08
Other   |            | 14.26      |            |       |  0.47

Nlocal:        9754.25 ave       15865 max        8260 min
Histogram: 9 3 0 1 2 0 0 0 0 1
Nghost:        7461.31 ave       10138 max        6440 min
Histogram: 7 2 1 2 1 0 2 0 0 1
Neighs:        96453.4 ave      109370 max       87525 min
Histogram: 1 2 4 2 1 4 0 0 1 1

Total # of neighbors = 1543255
Ave neighs/atom = 9.88835
Neighbor list builds = 28113
Dangerous builds = 27793

Total wall time: 0:51:22
