LAMMPS (23 Jun 2022 - Update 4)
  using 1 OpenMP thread(s) per MPI task
package omp 0
using multi-threaded neighbor list subroutines
#-----------------------------------------------------------------------------#
#                NUFEB Simulation: Heterotrophic Biofilm Growth               #
#-----------------------------------------------------------------------------#


#-----------------------------System Settings---------------------------------#

units si                                    # using si units (m, s, kg)
atom_style      coccus                      # using nufeb coccus atom style
atom_modify     map array sort 10 0         # map array - find atoms using indices
		                            # sort every 10

boundary        pp pp ff                    # periodic boundaries in x and y
                                            # fixed boundary in z

newton          off                         # forces between local and ghost
                                            # atoms are computed in each
					     # processor without communication

processors      * * 1                       # processor grid

comm_modify     vel yes                     # communicate velocities for ghost atoms

read_data       atom_ch.in	             # read atom.in file which defines domain size
Reading data file ...
  orthogonal box = (0 0 0) to (6e-05 6e-05 6e-05)
  4 by 4 by 1 MPI processor grid
  reading atoms ...
  150 atoms
  read_data CPU = 0.014 seconds
                                            # and initial atoms


#--------------------Microbes and Functional Groups-------------------------#

group           CROSS1   type 1               # assign type 1,2 atoms to CROSS group
50 atoms in group CROSS1
group           CROSS2   type 2
50 atoms in group CROSS2
group		CHEATER  type 3
50 atoms in group CHEATER
group           dead     type 4
0 atoms in group dead
group		EPS	 type 5
0 atoms in group EPS

neighbor        5e-7 bin                   # setting neighbour skin distance and style

neigh_modify    check yes                  # rebuild neighbour list if any atom
                                           # had moved more than half the skin distance


#--------------------------Mesh Grid and Substrates--------------------------#

# defining grid sytle, substrate names, and grid size
grid_style      nufeb/chemostat 3 sub metab1 metab2 5e-6

# set diffusion boundary conditions and initial concentrations (liquid:kg/m3)
grid_modify     set sub      pp pp nd  1.8e-4
No /omp style for force computation currently active
grid_modify     set metab1   pp pp nd  1e-4
No /omp style for force computation currently active
grid_modify     set metab2   pp pp nd  1e-4
No /omp style for force computation currently active


#--------------------------Biological Processes-------------------------------#

# heterotrophs growth
fix growth_cross1 CROSS1 nufeb/growth/cross1 sub 3.5e-5 metab2 4e-3 metab1 growth 0.009 yield 0.6 decay 2.6e-6 metab1_exp 20 epsyield 0.12 epsdens 30

fix growth_cross2 CROSS2 nufeb/growth/cross2 sub 3.5e-5 metab1 4e-3 metab2 growth 0.009 yield 0.6 decay 2.6e-6 metab2_exp 20 epsyield 0.12 epsdens 30

fix growth_cheater CHEATER nufeb/growth/cheater sub 3.5e-5 metab1 1e-3 metab2 1e-3 growth 0.009 yield 0.6 decay 2.6e-6

# heterotrophs division, division diameter: 1.36e-6
fix div1 CROSS1 nufeb/division/coccus 1.36e-6 544
fix div2 CROSS2 nufeb/division/coccus 1.36e-6 1870
fix div3 CHEATER nufeb/division/coccus 1.36e-6 4078

fix death1 CROSS1 nufeb/death/diameter dead 5.43e-7
fix death2 CROSS2 nufeb/death/diameter dead 5.43e-7
fix death3 CHEATER nufeb/death/diameter dead 5.43e-7

# EPS secretion from heterotrophs
fix eps1 CROSS1 nufeb/eps_secretion 5 EPS 1.1 30 7168
fix eps2 CROSS2 nufeb/eps_secretion 5 EPS 1.1 30 11140

#---------------------------Physical Processes--------------------------------#

pair_style  gran/hooke/history 1e-4 NULL 1e-5 NULL 0.0 0    # pairwise interaction
pair_coeff  * *                                             # between atoms

# pairwise interaction between z-wall and atoms
fix wall all wall/gran hooke/history 1e-3 NULL 1e-4 NULL 0 0 zplane 0.0 1e-04

fix vis all viscous 1e-5                                    # viscous damping force

fix grav all gravity 9.81 vector 0.0 0.0 -1.0

fix nve all nve/limit 1e-7                                  # NVE integration with
                                                            # maximum distance limit


#---------------------------Post-Physical Processes---------------------------#

fix coeff_sub all nufeb/diffusion_coeff sub ratio 0.8       # defining diffusion coeff in the biofilm
fix coeff_metab1 all nufeb/diffusion_coeff metab1 ratio 0.8    # region is 80% of the value in liquid
fix coeff_metab2 all nufeb/diffusion_coeff metab2 ratio 0.8

#---------------------------Chemical Processes---------------------------------#

fix diff_sub all nufeb/diffusion_reaction sub 1e-9        # diffusion reaction for updating
fix diff_metab1 all nufeb/diffusion_reaction metab1 4e-9     # distribusion of substrate concentration
fix diff_metab2 all nufeb/diffusion_reaction metab2 4e-9

#--------------------------Computations and Outputs----------------------------#

variable mass equal "mass(all)"                             # total mass
variable ncross1 equal "count(CROSS1)"                      # total # of CROSS1
variable ncross2 equal "count(CROSS2)"                      # total # of CROSS2
variable ncheater equal "count(CHEATER)"
variable ndead equal "count(dead)"
variable neps equal "count(EPS)"

shell mkdir vtk_EPS_ch                                            # dump vtk files to /vtk folder
dump du1 all vtk 10 vtk_EPS_ch/dump*.vtu id type diameter         # require build NUFEB with vtk option
dump du2 all grid/vtk 10 vtk_EPS_ch/dump_%_*.vti con rea den gro

#dump du3 all movie 10 movie.avi type diameter view 80 60    # dump video
#dump_modify du3 acolor 1 blue acolor 2 lightgrey framerate 10


                                                            # dump hdf5 files to /hdf5 folder
#shell mkdir hdf5                                           # require build NUFEB with hdf5 option
#dump du3 all nufeb/hdf5 10 dump.h5 id type x y z vx vy vz fx fy fz radius conc reac

thermo_style custom step cpu atoms v_ncross1 v_ncross2 v_ncheater v_ndead v_neps v_mass     # screen and log outputs
thermo 1
thermo_modify   lost ignore

#-----------------------------------Run----------------------------------------#

# issue run command, define timesteps for physical (pairdt) and chemical (diffdt) processes
run_style nufeb diffdt 1e-4 difftol 1e-6 pairdt 1e-2 pairtol 1 pairmax 1000 diffmax 5000

timestep 12000                                               # define biological timesteps (1000s)

run 320                                                    # growing biofilm for 900x1000s
Generated 0 of 6 mixed pair_coeff terms from geometric mixing rule
Last active /omp style is pair_style gran/hooke/history/omp
Neighbor list info ...
  update every 1 steps, delay 10 steps, check yes
  max neighbors/atom: 2000, page size: 100000
  master list distance cutoff = 2.49e-06
  ghost atom cutoff = 2.49e-06
  binsize = 1.245e-06, bins = 49 49 49
  1 neighbor lists, perpetual/occasional/extra = 1 0 0
  (1) pair gran/hooke/history/omp, perpetual
      attributes: half, newton off, size, history, omp
      pair build: half/size/bin/newtoff/omp
      stencil: full/bin/3d
      bin: standard
Per MPI rank memory allocation (min/avg/max) = 11.02 | 11.02 | 11.02 Mbytes
   Step          CPU          Atoms      v_ncross1      v_ncross2      v_ncheater      v_ndead         v_neps         v_mass    
         0   0                    150   50             50             50             0              0              1.3295396e-13
         1   0.38365807           432   90             85             86             0              171            1.7274022e-13
         2   0.76704888           798   120            126            136            0              416            1.9540954e-13
         3   1.0905522           1117   129            144            179            0              665            2.1391612e-13
         4   1.4070875           1437   136            154            200            0              947            2.3152276e-13
         5   1.6110415           1747   142            162            211            0              1232           2.4886157e-13
         6   1.8047              2077   146            173            233            0              1525           2.6591607e-13
         7   1.958765            2419   154            179            250            0              1836           2.8269446e-13
         8   2.1364568           2766   164            183            270            0              2149           2.9920869e-13
         9   2.2669708           3119   168            195            284            0              2472           3.1517688e-13
        10   2.4271047           3497   175            207            306            0              2809           3.307368e-13 
        11   2.5401906           3874   180            212            324            0              3158           3.4610261e-13
        12   2.671784            4263   184            220            346            0              3513           3.612008e-13 
        13   2.7831244           4644   190            224            365            0              3865           3.7613111e-13
        14   2.8866941           5035   197            229            373            0              4236           3.9067526e-13
        15   2.9911419           5420   199            234            395            0              4592           4.0455017e-13
        16   3.0871892           5821   202            237            415            0              4967           4.1825745e-13
        17   3.2007578           6211   206            240            435            0              5330           4.3129617e-13
        18   3.3153965           6596   209            244            447            0              5696           4.4393311e-13
        19   3.420715            6992   215            246            466            0              6065           4.5650196e-13
        20   17.427083           7388   221            252            484            0              6431           4.6879294e-13
        21   17.561985           7795   225            258            500            0              6812           4.8093533e-13
        22   17.637357           8185   228            263            515            0              7179           4.9279172e-13
        23   17.749427           8579   232            267            535            0              7545           5.0417167e-13
        24   17.869942           8975   242            271            548            0              7914           5.1556786e-13
        25   18.014272           9351   244            273            564            0              8270           5.2655423e-13
        26   18.136579           9765   248            277            580            0              8660           5.3756805e-13
        27   18.292042          10137   249            281            595            0              9012           5.4811763e-13
        28   18.451267          10527   251            281            611            0              9384           5.5899169e-13
        29   18.610325          10923   253            286            634            0              9750           5.6982415e-13
        30   36.884772          11323   260            287            652            0              10124          5.8014403e-13
        31   37.040861          11713   261            289            671            0              10492          5.904166e-13 
        32   37.205047          12104   266            294            688            0              10856          6.0078889e-13
        33   37.388683          12510   268            296            708            0              11238          6.110024e-13 
        34   37.556937          12883   274            297            726            0              11586          6.2089077e-13
        35   37.723782          13266   276            302            743            0              11945          6.3082635e-13
        36   37.945121          13673   278            308            763            0              12324          6.4061689e-13
        37   38.130062          14057   280            311            777            0              12689          6.5035278e-13
        38   38.378963          14458   283            314            796            0              13065          6.5955702e-13
        39   38.692867          14848   287            316            815            0              13430          6.684391e-13 
        40   39.094792          15273   292            320            833            0              13828          6.7747238e-13
        41   39.531494          15663   296            322            852            0              14193          6.8634001e-13
        42   40.134022          16068   299            322            867            0              14580          6.9481476e-13
        43   40.68113           16443   301            323            887            0              14932          7.0325596e-13
        44   41.246083          16843   303            324            900            0              15316          7.1230245e-13
        45   42.222151          17234   304            326            923            0              15681          7.2161904e-13
        46   43.057862          17638   306            328            950            0              16054          7.3100825e-13
        47   44.108725          18030   307            329            970            0              16424          7.4060002e-13
        48   45.009678          18428   309            333            991            0              16795          7.5038738e-13
        49   46.082392          18830   312            334            1012           0              17172          7.6012401e-13
        50   47.212304          19231   313            334            1032           0              17552          7.7011231e-13
        51   48.277535          19612   315            336            1062           1              17898          7.7967054e-13
        52   49.356635          20029   319            336            1082           1              18291          7.8913672e-13
        53   50.435537          20405   321            338            1105           1              18640          7.9786811e-13
        54   51.557007          20835   323            339            1128           2              19043          8.0657801e-13
        55   52.734148          21195   323            340            1147           2              19383          8.1484893e-13
        56   53.93467           21610   326            340            1164           2              19778          8.2357055e-13
        57   55.249687          21978   328            342            1182           3              20123          8.3195053e-13
        58   56.587579          22410   328            343            1216           3              20520          8.4139924e-13
        59   58.014647          22797   330            343            1244           6              20874          8.5099024e-13
        60   59.49417           23206   331            345            1270           11             21249          8.6179873e-13
        61   60.963422          23591   332            345            1291           14             21609          8.7289219e-13
        62   62.437642          24012   333            348            1323           18             21990          8.8481153e-13
        63   63.903888          24392   336            349            1346           21             22340          8.9713588e-13
        64   65.410672          24817   337            350            1391           22             22717          9.0969577e-13
        65   66.939452          25199   339            352            1415           25             23068          9.2226829e-13
        66   68.478799          25611   341            354            1456           26             23434          9.3483937e-13
        67   70.070044          26004   341            356            1489           32             23786          9.4742465e-13
        68   71.707906          26405   342            356            1524           36             24147          9.6050658e-13
        69   73.433986          26812   343            356            1563           39             24511          9.7427e-13   
        70   75.290063          27208   345            356            1607           42             24858          9.8880324e-13
        71   77.121369          27623   346            358            1650           48             25221          1.0045622e-12
        72   79.005748          28009   346            359            1699           52             25553          1.0213014e-12
        73   80.900019          28427   346            360            1747           58             25916          1.0393566e-12
        74   82.843756          28825   346            362            1807           64             26246          1.0580191e-12
        75   84.813728          29239   347            362            1862           70             26598          1.07764e-12  
        76   86.745901          29647   347            362            1924           80             26934          1.0977858e-12
        77   88.738129          30070   348            363            1986           86             27287          1.1177911e-12
        78   90.755405          30460   349            364            2049           97             27601          1.1375468e-12
        79   92.79263           30884   349            366            2107           107            27955          1.1574791e-12
        80   94.96972           31290   351            367            2174           114            28284          1.1771369e-12
        81   97.091687          31706   351            367            2241           123            28624          1.1969191e-12
        82   99.302705          32131   352            368            2305           132            28974          1.2166461e-12
        83   101.54948          32517   352            368            2365           147            29285          1.2370271e-12
        84   103.83283          32947   352            368            2433           159            29635          1.2581908e-12
        85   106.15393          33336   353            368            2499           173            29943          1.2804254e-12
        86   108.50846          33752   354            368            2573           182            30275          1.3034814e-12
        87   110.87888          34151   354            369            2639           192            30597          1.3269561e-12
        88   113.26589          34549   354            369            2705           210            30911          1.3504304e-12
        89   115.66609          34981   354            369            2778           224            31256          1.3739051e-12
        90   118.21495          35367   354            369            2859           231            31554          1.3970001e-12
        91   120.71609          35758   354            369            2933           238            31864          1.4199174e-12
        92   123.25868          36159   355            369            3008           243            32184          1.4424836e-12
        93   125.91942          36553   355            369            3092           248            32489          1.4647361e-12
        94   128.62252          36965   355            369            3168           251            32822          1.487891e-12 
        95   131.37273          37361   355            370            3256           255            33125          1.5108937e-12
        96   134.1748           37772   355            370            3346           265            33436          1.5353287e-12
        97   137.02751          38172   355            370            3430           271            33746          1.5600978e-12
        98   139.93013          38565   355            370            3525           276            34039          1.585717e-12 
        99   142.87957          38993   355            370            3612           281            34375          1.6122073e-12
       100   145.98003          39373   355            370            3702           288            34658          1.6385882e-12
       101   149.07233          39772   355            371            3786           291            34969          1.664935e-12 
       102   152.14063          40188   355            371            3896           293            35273          1.6911854e-12
       103   155.26379          40608   355            371            4006           297            35579          1.7167457e-12
       104   158.44113          41011   355            371            4091           302            35892          1.7420471e-12
       105   161.7027           41427   355            371            4205           308            36188          1.7674154e-12
       106   165.02626          41815   355            371            4288           311            36490          1.7929964e-12
       107   168.40617          42231   355            371            4397           318            36790          1.8196403e-12
       108   171.83206          42638   355            371            4498           326            37088          1.8470401e-12
       109   175.33281          43060   355            371            4611           336            37387          1.8757127e-12
       110   179.01443          43478   356            371            4720           345            37686          1.9052848e-12
       111   182.66544          43865   357            371            4810           357            37970          1.9353638e-12
       112   186.36092          44292   357            371            4914           378            38272          1.966213e-12 
       113   190.15583          44712   357            371            5023           403            38558          1.9976224e-12
       114   193.96381          45149   357            371            5131           419            38871          2.0292591e-12
       115   197.84706          45550   357            372            5233           441            39147          2.0608014e-12
       116   201.79693          45976   358            372            5331           474            39441          2.0929019e-12
       117   205.81925          46411   358            372            5453           495            39733          2.126711e-12 
       118   209.89376          46842   358            372            5572           526            40014          2.1612294e-12
       119   214.03422          47260   358            372            5678           565            40287          2.1973228e-12
       120   218.39495          47717   358            372            5785           611            40591          2.234971e-12 
       121   222.64165          48172   358            372            5908           665            40869          2.2734215e-12
       122   226.96408          48602   358            372            6000           731            41141          2.3135075e-12
       123   231.40358          49033   358            372            6091           785            41427          2.3537486e-12
       124   235.86975          49468   357            372            6201           837            41701          2.394695e-12 
       125   240.41692          49924   357            372            6332           890            41973          2.4360027e-12
       126   245.05874          50408   357            372            6474           951            42254          2.4780823e-12
       127   249.78754          50857   357            372            6585           1017           42526          2.5210927e-12
       128   254.59479          51315   357            372            6719           1076           42791          2.566649e-12 
       129   259.46521          51766   357            372            6832           1142           43063          2.6145364e-12
       130   264.58144          52245   357            372            6968           1206           43342          2.6639322e-12
       131   269.65754          52711   357            372            7110           1274           43598          2.7142596e-12
       132   274.83316          53208   357            372            7281           1328           43870          2.7658781e-12
       133   280.08133          53680   357            372            7437           1372           44142          2.8184314e-12
       134   285.40692          54163   357            372            7606           1438           44390          2.8722899e-12
       135   290.84406          54650   355            372            7743           1505           44675          2.9266974e-12
       136   296.37703          55146   354            372            7925           1563           44932          2.982714e-12 
       137   302.01988          55647   353            372            8118           1620           45184          3.0411185e-12
       138   307.76967          56175   353            372            8333           1660           45457          3.1019051e-12
       139   313.60856          56664   353            372            8517           1706           45716          3.1667419e-12
       140   319.71006          57181   353            372            8731           1758           45967          3.2350753e-12
       141   325.7855           57730   353            372            8980           1791           46234          3.3066372e-12
       142   331.99493          58255   353            372            9217           1827           46486          3.3814349e-12
       143   338.32905          58800   353            372            9470           1870           46735          3.4582847e-12
       144   344.78305          59376   353            372            9735           1907           47009          3.5400794e-12
       145   351.36459          59935   353            371            9991           1962           47258          3.6267687e-12
       146   358.09141          60534   353            371            10289          2012           47509          3.7212601e-12
       147   364.95843          61153   353            371            10588          2059           47782          3.8243312e-12
       148   371.9753           61767   353            371            10927          2107           48009          3.9363501e-12
       149   379.18459          62446   353            371            11310          2163           48249          4.0591958e-12
       150   386.70815          63147   353            371            11696          2202           48525          4.1928274e-12
       151   394.21596          63818   352            371            12110          2236           48749          4.3332716e-12
       152   401.9523           64555   352            371            12559          2282           48991          4.4759084e-12
       153   409.80283          65291   352            371            12988          2326           49254          4.6174627e-12
       154   417.79094          66007   352            371            13429          2373           49482          4.7576325e-12
       155   425.97333          66756   352            370            13871          2438           49725          4.9026472e-12
       156   434.31163          67529   352            369            14329          2510           49969          5.0503857e-12
       157   442.81305          68324   352            368            14820          2578           50206          5.199864e-12 
       158   451.48551          69071   352            368            15271          2634           50446          5.3489425e-12
       159   460.31365          69841   352            368            15776          2672           50673          5.5097413e-12
       160   469.42687          70608   352            368            16263          2718           50907          5.651562e-12 
       161   478.50145          71399   352            367            16761          2778           51141          5.8029302e-12
       162   487.75081          72153   352            367            17247          2827           51360          5.951373e-12 
       163   497.20704          72976   352            367            17777          2877           51603          6.1134608e-12
       164   506.74696          73822   351            367            18345          2933           51826          6.2862169e-12
       165   516.34184          74618   351            366            18853          3001           52047          6.4486923e-12
       166   526.00695          75483   351            365            19433          3082           52252          6.6312011e-12
       167   535.79829          76337   351            365            19990          3160           52471          6.8102005e-12
       168   545.67578          77203   350            364            20567          3248           52674          6.981335e-12 
       169   555.56782          78085   349            364            21156          3345           52871          7.1697364e-12
       170   565.72001          79003   349            363            21768          3440           53083          7.3728951e-12
       171   575.81355          79948   349            363            22399          3544           53293          7.5628758e-12
       172   585.89915          80786   349            363            22925          3686           53463          7.7648474e-12
       173   596.05015          81779   349            363            23587          3826           53654          7.966088e-12 
       174   606.16181          82701   349            363            24171          3986           53832          8.1717239e-12
       175   616.33906          83600   348            362            24725          4162           54003          8.3785365e-12
       176   626.57526          84567   347            360            25338          4364           54158          8.5757746e-12
       177   636.83675          85466   346            360            25905          4555           54300          8.7708822e-12
       178   647.15967          86462   345            360            26550          4739           54468          8.9935089e-12
       179   657.54069          87320   345            359            27057          4956           54603          9.2029788e-12
       180   668.18929          88357   344            358            27753          5171           54731          9.4158569e-12
       181   678.7103           89319   344            358            28366          5377           54874          9.6273089e-12
       182   689.2979           90234   343            355            28935          5613           54988          9.8452044e-12
       183   699.92094          91209   342            354            29592          5820           55101          1.0045103e-11
       184   710.59767          92092   341            352            30150          6042           55207          1.0235401e-11
       185   721.31322          93016   339            351            30736          6289           55301          1.0430144e-11
       186   732.07963          93850   339            349            31227          6534           55401          1.0598657e-11
       187   742.87228          94653   338            349            31717          6760           55489          1.0737798e-11
       188   753.74318          95608   337            346            32323          7012           55590          1.0921853e-11
       189   764.65018          96442   335            342            32823          7259           55683          1.1057061e-11
       190   775.79976          97178   334            338            33251          7519           55736          1.1185884e-11
       191   786.77462          97933   333            337            33720          7746           55797          1.1320136e-11
       192   797.82313          98601   332            335            34061          7997           55876          1.140855e-11 
       193   808.88916          99358   331            335            34524          8222           55946          1.1515709e-11
       194   820.01042         100080   330            331            34946          8468           56005          1.1600347e-11
       195   831.12213         100729   327            328            35361          8655           56058          1.1695308e-11
       196   842.28297         101365   325            325            35724          8874           56117          1.1761714e-11
       197   853.4766          101968   323            322            36073          9073           56177          1.1795396e-11
       198   864.74588         102550   319            315            36415          9270           56231          1.1844427e-11
       199   876.05761         103154   312            312            36797          9459           56274          1.1904824e-11
       200   887.62356         103799   308            303            37172          9694           56322          1.1953617e-11
       201   899.03852         104364   306            299            37478          9920           56361          1.2018002e-11
       202   910.48909         104882   303            294            37749          10135          56401          1.2032405e-11
       203   922.01287         105476   301            288            38047          10397          56443          1.2050802e-11
       204   933.59475         106048   295            281            38318          10670          56484          1.210882e-11 
       205   945.18463         106501   291            274            38456          10946          56534          1.2108522e-11
       206   956.79058         106972   288            269            38586          11264          56565          1.2102177e-11
       207   968.43772         107528   279            260            38824          11559          56606          1.2120694e-11
       208   980.10561         108070   272            250            39028          11864          56656          1.2139364e-11
       209   991.82606         108521   265            240            39143          12182          56691          1.2149319e-11
       210   1003.8341         108959   259            233            39235          12501          56731          1.2131647e-11
       211   1015.6207         109408   253            220            39332          12818          56785          1.2131322e-11
       212   1027.4753         109834   241            213            39367          13190          56823          1.210956e-11 
       213   1039.3824         110362   232            205            39575          13497          56853          1.2109566e-11
       214   1051.3017         110826   226            193            39713          13809          56885          1.211478e-11 
       215   1063.2201         111152   211            185            39692          14143          56921          1.2112243e-11
       216   1075.2087         111591   201            177            39772          14479          56962          1.2098975e-11
       217   1087.2464         112054   192            164            39863          14827          57008          1.2081983e-11
       218   1099.3488         112509   189            153            39955          15170          57042          1.2069809e-11
       219   1111.5089         112960   177            149            40077          15461          57096          1.2066163e-11
       220   1123.9455         113348   172            137            40150          15755          57134          1.2086123e-11
       221   1136.0971         113778   164            124            40233          16086          57171          1.2078806e-11
       222   1148.3517         114166   148            117            40292          16402          57207          1.2058442e-11
       223   1160.6467         114603   139            111            40390          16730          57233          1.2039116e-11
       224   1172.9714         115052   132            105            40511          17033          57271          1.2054552e-11
       225   1185.3036         115342   122            100            40450          17359          57311          1.2021107e-11
       226   1197.6516         115807   120            94             40567          17671          57355          1.2026799e-11
       227   1210.0774         116146   110            85             40562          17995          57394          1.2024363e-11
       228   1222.55           116614   98             81             40693          18313          57429          1.2011927e-11
       229   1235.0805         117091   88             76             40797          18666          57464          1.2002694e-11
       230   1247.9262         117467   79             71             40824          18991          57502          1.2004156e-11
       231   1260.5721         117777   74             64             40806          19301          57532          1.2027924e-11
       232   1273.2721         118195   69             57             40843          19662          57564          1.2017232e-11
       233   1285.9881         118591   62             52             40862          20016          57599          1.1986299e-11
       234   1298.7208         118965   59             47             40889          20344          57626          1.1988584e-11
       235   1311.4907         119324   53             44             40831          20736          57660          1.1976747e-11
       236   1324.3206         119745   49             40             40903          21069          57684          1.1994676e-11
       237   1337.1977         120114   46             38             40866          21447          57717          1.1983505e-11
       238   1350.1051         120449   44             37             40780          21845          57743          1.1985543e-11
       239   1363.0545         120888   42             36             40806          22230          57774          1.1990938e-11
       240   1376.3023         121239   40             33             40706          22661          57799          1.1977593e-11
       241   1389.4058         121655   38             33             40679          23080          57825          1.198597e-11 
       242   1402.589          121904   36             29             40456          23527          57856          1.1968829e-11
       243   1415.7854         122279   34             28             40381          23958          57878          1.1974561e-11
       244   1429.0453         122702   34             25             40331          24408          57904          1.1975242e-11
       245   1442.3163         123019   33             25             40179          24853          57929          1.1971996e-11
       246   1455.6336         123393   33             22             40061          25323          57954          1.1978959e-11
       247   1468.9982         123728   32             22             39898          25799          57977          1.1970657e-11
       248   1482.399          124069   30             21             39724          26294          58000          1.1960416e-11
       249   1495.8629         124435   29             21             39588          26773          58024          1.1983687e-11
       250   1509.6752         124813   28             21             39470          27249          58045          1.1987654e-11
       251   1523.2043         125175   28             21             39274          27778          58074          1.1992419e-11
       252   1536.8051         125478   28             19             39073          28267          58091          1.201015e-11 
       253   1550.4257         125902   28             19             38987          28747          58121          1.2016104e-11
       254   1564.0832         126168   27             19             38731          29254          58137          1.199219e-11 
       255   1577.7451         126592   27             18             38678          29705          58164          1.202148e-11 
       256   1591.4448         126927   27             18             38592          30108          58182          1.2026319e-11
       257   1605.1875         127220   27             18             38400          30567          58208          1.2025004e-11
       258   1618.9748         127565   27             18             38258          31033          58229          1.2024905e-11
       259   1632.6407         127920   27             18             38103          31517          58255          1.2057902e-11
       260   1646.772          128324   27             17             38014          31989          58277          1.2064223e-11
       261   1660.6366         128659   27             17             37837          32477          58301          1.2068859e-11
       262   1674.6232         129013   26             17             37688          32959          58323          1.2084574e-11
       263   1688.6287         129313   26             17             37485          33437          58348          1.2091997e-11
       264   1702.5663         129674   26             17             37422          33842          58367          1.2111424e-11
       265   1716.6969         129967   26             16             37275          34259          58391          1.2111957e-11
       266   1730.7606         130338   26             16             37190          34695          58411          1.2115398e-11
       267   1744.8999         130737   26             16             37183          35078          58434          1.2135549e-11
       268   1759.1837         130947   26             16             36959          35490          58456          1.2111299e-11
       269   1773.3296         131279   26             16             36853          35905          58479          1.2116283e-11
       270   1787.827          131599   26             16             36745          36312          58500          1.2145016e-11
       271   1802.085          131934   26             16             36749          36619          58524          1.2156414e-11
       272   1816.3851         132321   26             16             36738          36995          58546          1.2159249e-11
       273   1830.908          132642   26             15             36644          37389          58568          1.2165133e-11
       274   1845.2622         133002   26             15             36623          37750          58588          1.2189337e-11
       275   1859.6314         133313   26             15             36514          38145          58613          1.2212798e-11
       276   1874.0833         133606   26             15             36423          38508          58634          1.2211624e-11
       277   1888.6003         133959   26             15             36410          38851          58657          1.2222497e-11
       278   1903.1405         134319   26             15             36375          39224          58679          1.2243741e-11
       279   1917.7175         134683   26             15             36382          39560          58700          1.2257778e-11
       280   1932.673          134975   26             15             36325          39886          58723          1.2255319e-11
       281   1947.3002         135298   26             15             36280          40234          58743          1.2265271e-11
       282   1962.0343         135617   26             15             36230          40579          58767          1.2300987e-11
       283   1976.7583         135948   26             15             36193          40925          58789          1.2296633e-11
       284   1991.6511         136303   25             15             36210          41243          58810          1.2313504e-11
       285   2006.4655         136637   25             15             36230          41536          58831          1.2325139e-11
       286   2021.451          137022   24             15             36256          41876          58851          1.234481e-11 
       287   2036.3751         137220   24             15             36101          42208          58872          1.2323094e-11
       288   2051.3499         137604   24             15             36129          42542          58894          1.2352144e-11
       289   2066.3457         137926   24             15             36090          42883          58914          1.235659e-11 
       290   2081.7689         138243   24             15             36101          43167          58936          1.2368742e-11
       291   2097.0148         138525   24             15             36037          43493          58956          1.236718e-11 
       292   2112.2224         138861   24             15             36041          43803          58978          1.2378426e-11
       293   2127.4504         139137   24             15             35968          44130          59000          1.2389789e-11
       294   2142.7787         139451   24             15             35945          44445          59022          1.2381086e-11
       295   2158.1494         139704   24             15             35885          44737          59043          1.2362935e-11
       296   2173.4985         140122   24             15             35962          45058          59063          1.2403472e-11
       297   2188.877          140380   24             15             35889          45365          59087          1.2419722e-11
       298   2204.3524         140710   24             15             35881          45682          59108          1.2415654e-11
       299   2219.9433         141060   23             15             35906          45989          59127          1.2437096e-11
       300   2235.8129         141409   23             15             35911          46307          59153          1.2454821e-11
       301   2251.359          141713   23             15             35883          46622          59170          1.2475006e-11
       302   2267.0251         142008   23             15             35815          46959          59196          1.2500652e-11
       303   2282.674          142313   23             15             35784          47275          59216          1.2507534e-11
       304   2298.352          142663   23             15             35784          47605          59236          1.2510487e-11
       305   2314.0602         143038   23             15             35798          47943          59259          1.2527355e-11
       306   2329.8496         143318   23             15             35755          48247          59278          1.2535128e-11
       307   2345.6938         143613   23             15             35706          48565          59304          1.2543812e-11
       308   2361.5847         143911   23             15             35651          48901          59321          1.2555552e-11
       309   2377.4959         144211   23             15             35641          49188          59344          1.2567571e-11
       310   2393.9212         144516   23             15             35619          49495          59364          1.2549791e-11
       311   2410.0085         144932   23             15             35713          49796          59385          1.2582376e-11
       312   2426.0874         145193   23             15             35678          50073          59404          1.2605997e-11
       313   2442.2092         145527   23             15             35721          50342          59426          1.2612504e-11
       314   2458.4033         145840   23             15             35730          50625          59447          1.2641854e-11
       315   2474.6195         146064   23             15             35594          50965          59467          1.262271e-11 
       316   2490.9286         146478   23             15             35678          51269          59493          1.2657309e-11
       317   2507.2684         146715   23             15             35587          51580          59510          1.2648424e-11
       318   2523.674          147075   23             15             35619          51885          59533          1.2647357e-11
       319   2540.086          147377   23             15             35589          52197          59553          1.2671763e-11
       320   2556.8801         147717   23             15             35604          52500          59575          1.2700462e-11
Loop time of 2556.88 on 16 procs for 320 steps with 147717 atoms

98.5% CPU use with 16 MPI tasks x 1 OpenMP threads

MPI task timing breakdown:
Section |  min time  |  avg time  |  max time  |%varavg| %total
---------------------------------------------------------------
Pair    | 590.41     | 653.11     | 889.04     | 298.6 | 25.54
Neigh   | 467.21     | 552.61     | 921.18     | 510.4 | 21.61
Comm    | 203.75     | 239.37     | 275.82     | 157.3 |  9.36
Output  | 37.952     | 37.952     | 37.953     |   0.0 |  1.48
Modify  | 430.18     | 1061.5     | 1235.7     | 639.0 | 41.52
Other   |            | 12.29      |            |       |  0.48

Nlocal:        9232.31 ave       13952 max        7980 min
Histogram: 10 1 1 2 0 0 0 1 0 1
Nghost:        7143.62 ave        9433 max        6125 min
Histogram: 8 1 1 0 2 0 1 1 0 2
Neighs:        91360.1 ave      110025 max       85737 min
Histogram: 5 5 2 0 3 0 0 0 0 1

Total # of neighbors = 1461762
Ave neighs/atom = 9.8956924
Neighbor list builds = 27969
Dangerous builds = 27649

Total wall time: 0:43:05
