LAMMPS (23 Jun 2022 - Update 4)
  using 1 OpenMP thread(s) per MPI task
package omp 0
using multi-threaded neighbor list subroutines
#-----------------------------------------------------------------------------#
#                NUFEB Simulation: Heterotrophic Biofilm Growth               #
#-----------------------------------------------------------------------------#


#-----------------------------System Settings---------------------------------#

units si                                    # using si units (m, s, kg)
atom_style      coccus                      # using nufeb coccus atom style
atom_modify     map array sort 10 0         # map array - find atoms using indices
		                            # sort every 10

boundary        pp pp ff                    # periodic boundaries in x and y
                                            # fixed boundary in z

newton          off                         # forces between local and ghost
                                            # atoms are computed in each
					     # processor without communication

processors      * * 1                       # processor grid

comm_modify     vel yes                     # communicate velocities for ghost atoms

read_data       atom_ch.in	             # read atom.in file which defines domain size
Reading data file ...
  orthogonal box = (0 0 0) to (6e-05 6e-05 6e-05)
  4 by 4 by 1 MPI processor grid
  reading atoms ...
  150 atoms
  read_data CPU = 0.011 seconds
                                            # and initial atoms


#--------------------Microbes and Functional Groups-------------------------#

group           CROSS1   type 1               # assign type 1,2 atoms to CROSS group
50 atoms in group CROSS1
group           CROSS2   type 2
50 atoms in group CROSS2
group		CHEATER  type 3
50 atoms in group CHEATER
group           dead     type 4
0 atoms in group dead
group		EPS	 type 5
0 atoms in group EPS

neighbor        5e-7 bin                   # setting neighbour skin distance and style

neigh_modify    check yes                  # rebuild neighbour list if any atom
                                           # had moved more than half the skin distance


#--------------------------Mesh Grid and Substrates--------------------------#

# defining grid sytle, substrate names, and grid size
grid_style      nufeb/chemostat 3 sub metab1 metab2 5e-6

# set diffusion boundary conditions and initial concentrations (liquid:kg/m3)
grid_modify     set sub      pp pp nd  1.8e-4
No /omp style for force computation currently active
grid_modify     set metab1   pp pp nd  1e-4
No /omp style for force computation currently active
grid_modify     set metab2   pp pp nd  1e-4
No /omp style for force computation currently active


#--------------------------Biological Processes-------------------------------#

# heterotrophs growth
fix growth_cross1 CROSS1 nufeb/growth/cross1 sub 3.5e-5 metab2 4e-3 metab1 growth 0.009 yield 0.6 decay 2.6e-6 metab1_exp 20 epsyield 0.12 epsdens 30

fix growth_cross2 CROSS2 nufeb/growth/cross2 sub 3.5e-5 metab1 4e-3 metab2 growth 0.009 yield 0.6 decay 2.6e-6 metab2_exp 20 epsyield 0.12 epsdens 30

fix growth_cheater CHEATER nufeb/growth/cheater sub 3.5e-5 metab1 1e-3 metab2 1e-3 growth 0.009 yield 0.6 decay 2.6e-6

# heterotrophs division, division diameter: 1.36e-6
fix div1 CROSS1 nufeb/division/coccus 1.36e-6 679
fix div2 CROSS2 nufeb/division/coccus 1.36e-6 2410
fix div3 CHEATER nufeb/division/coccus 1.36e-6 5293

fix death1 CROSS1 nufeb/death/diameter dead 5.43e-7
fix death2 CROSS2 nufeb/death/diameter dead 5.43e-7
fix death3 CHEATER nufeb/death/diameter dead 5.43e-7

# EPS secretion from heterotrophs
fix eps1 CROSS1 nufeb/eps_secretion 5 EPS 1.1 30 9328
fix eps2 CROSS2 nufeb/eps_secretion 5 EPS 1.1 30 14515

#---------------------------Physical Processes--------------------------------#

pair_style  gran/hooke/history 1e-4 NULL 1e-5 NULL 0.0 0    # pairwise interaction
pair_coeff  * *                                             # between atoms

# pairwise interaction between z-wall and atoms
fix wall all wall/gran hooke/history 1e-3 NULL 1e-4 NULL 0 0 zplane 0.0 1e-04

fix vis all viscous 1e-5                                    # viscous damping force

fix grav all gravity 9.81 vector 0.0 0.0 -1.0

fix nve all nve/limit 1e-7                                  # NVE integration with
                                                            # maximum distance limit


#---------------------------Post-Physical Processes---------------------------#

fix coeff_sub all nufeb/diffusion_coeff sub ratio 0.8       # defining diffusion coeff in the biofilm
fix coeff_metab1 all nufeb/diffusion_coeff metab1 ratio 0.8    # region is 80% of the value in liquid
fix coeff_metab2 all nufeb/diffusion_coeff metab2 ratio 0.8

#---------------------------Chemical Processes---------------------------------#

fix diff_sub all nufeb/diffusion_reaction sub 1e-9        # diffusion reaction for updating
fix diff_metab1 all nufeb/diffusion_reaction metab1 4e-9     # distribusion of substrate concentration
fix diff_metab2 all nufeb/diffusion_reaction metab2 4e-9

#--------------------------Computations and Outputs----------------------------#

variable mass equal "mass(all)"                             # total mass
variable ncross1 equal "count(CROSS1)"                      # total # of CROSS1
variable ncross2 equal "count(CROSS2)"                      # total # of CROSS2
variable ncheater equal "count(CHEATER)"
variable ndead equal "count(dead)"
variable neps equal "count(EPS)"

shell mkdir vtk_EPS_ch                                            # dump vtk files to /vtk folder
dump du1 all vtk 10 vtk_EPS_ch/dump*.vtu id type diameter         # require build NUFEB with vtk option
dump du2 all grid/vtk 10 vtk_EPS_ch/dump_%_*.vti con rea den gro

#dump du3 all movie 10 movie.avi type diameter view 80 60    # dump video
#dump_modify du3 acolor 1 blue acolor 2 lightgrey framerate 10


                                                            # dump hdf5 files to /hdf5 folder
#shell mkdir hdf5                                           # require build NUFEB with hdf5 option
#dump du3 all nufeb/hdf5 10 dump.h5 id type x y z vx vy vz fx fy fz radius conc reac

thermo_style custom step cpu atoms v_ncross1 v_ncross2 v_ncheater v_ndead v_neps v_mass     # screen and log outputs
thermo 1
thermo_modify   lost ignore

#-----------------------------------Run----------------------------------------#

# issue run command, define timesteps for physical (pairdt) and chemical (diffdt) processes
run_style nufeb diffdt 1e-4 difftol 1e-6 pairdt 1e-2 pairtol 1 pairmax 1000 diffmax 5000

timestep 12000                                               # define biological timesteps (1000s)

run 320                                                    # growing biofilm for 900x1000s
Generated 0 of 6 mixed pair_coeff terms from geometric mixing rule
Last active /omp style is pair_style gran/hooke/history/omp
Neighbor list info ...
  update every 1 steps, delay 10 steps, check yes
  max neighbors/atom: 2000, page size: 100000
  master list distance cutoff = 2.49e-06
  ghost atom cutoff = 2.49e-06
  binsize = 1.245e-06, bins = 49 49 49
  1 neighbor lists, perpetual/occasional/extra = 1 0 0
  (1) pair gran/hooke/history/omp, perpetual
      attributes: half, newton off, size, history, omp
      pair build: half/size/bin/newtoff/omp
      stencil: full/bin/3d
      bin: standard
Per MPI rank memory allocation (min/avg/max) = 11.02 | 11.02 | 11.02 Mbytes
   Step          CPU          Atoms      v_ncross1      v_ncross2      v_ncheater      v_ndead         v_neps         v_mass    
         0   0                    150   50             50             50             0              0              1.3295396e-13
         1   0.37729548           432   90             85             86             0              171            1.7276217e-13
         2   0.75170405           801   120            127            136            0              418            1.9550571e-13
         3   1.0729894           1116   130            141            176            0              669            2.1449307e-13
         4   1.3773132           1427   139            150            192            0              946            2.3241824e-13
         5   1.5597387           1747   144            156            218            0              1229           2.497979e-13 
         6   1.7330372           2069   148            164            236            0              1521           2.6707799e-13
         7   1.8892005           2415   156            173            257            0              1829           2.8416579e-13
         8   2.031237            2765   166            184            276            0              2139           3.0075038e-13
         9   2.1626564           3122   175            189            288            0              2470           3.1732685e-13
        10   2.3387837           3497   177            200            310            0              2810           3.3377771e-13
        11   2.4995635           3864   179            208            330            0              3147           3.4992164e-13
        12   2.6281411           4240   181            213            354            0              3492           3.658248e-13 
        13   2.7556159           4638   189            221            373            0              3855           3.8146801e-13
        14   2.8785622           5019   194            223            391            0              4211           3.966636e-13 
        15   2.992097            5410   203            225            404            0              4578           4.1165334e-13
        16   3.1056219           5806   210            229            428            0              4939           4.2575123e-13
        17   3.2400282           6212   219            233            447            0              5313           4.3952545e-13
        18   3.3329479           6601   223            239            468            0              5671           4.5260678e-13
        19   3.4292856           7016   232            242            486            0              6056           4.6560504e-13
        20   14.744296           7411   236            246            502            0              6427           4.7812048e-13
        21   14.841319           7811   238            250            523            0              6800           4.9023802e-13
        22   14.932596           8210   241            251            540            0              7178           5.0202217e-13
        23   15.023507           8591   242            256            550            0              7543           5.1337666e-13
        24   15.130307           8980   245            259            567            0              7909           5.2446498e-13
        25   15.262645           9367   251            261            583            0              8272           5.3505901e-13
        26   15.364582           9762   254            266            599            0              8643           5.4536861e-13
        27   15.456801          10178   260            270            618            0              9030           5.5507073e-13
        28   15.539706          10577   265            274            629            0              9409           5.6423925e-13
        29   15.645363          10968   269            277            645            0              9777           5.732132e-13 
        30   31.348506          11392   275            282            663            0              10172          5.8195112e-13
        31   31.492433          11784   277            283            672            0              10552          5.9055016e-13
        32   31.60948           12164   280            287            683            0              10914          5.9914364e-13
        33   31.757498          12579   284            289            696            0              11310          6.0762922e-13
        34   31.936144          12972   287            293            710            0              11682          6.1562469e-13
        35   32.12535           13353   291            297            715            0              12050          6.2368579e-13
        36   32.364902          13781   295            299            731            0              12456          6.3214687e-13
        37   32.615688          14181   299            304            747            0              12831          6.4050597e-13
        38   32.988388          14584   301            305            761            0              13217          6.4903727e-13
        39   33.409336          14985   303            308            778            0              13596          6.5757253e-13
        40   33.839837          15373   304            311            789            0              13969          6.6624142e-13
        41   34.247809          15772   306            311            804            0              14351          6.749614e-13 
        42   34.797935          16173   311            312            827            0              14723          6.8355349e-13
        43   35.555735          16601   317            314            846            0              15124          6.9246335e-13
        44   36.431549          16993   319            316            862            0              15496          7.0112696e-13
        45   37.42393           17398   323            317            882            0              15876          7.1022005e-13
        46   38.486635          17819   328            317            907            0              16267          7.1918832e-13
        47   39.505043          18223   330            318            934            0              16641          7.2785634e-13
        48   40.551996          18635   331            320            951            0              17033          7.3655212e-13
        49   41.62315           19023   332            321            967            0              17403          7.4505715e-13
        50   42.747451          19431   335            323            988            0              17785          7.5362682e-13
        51   43.848583          19828   337            324            1006           0              18161          7.6205889e-13
        52   44.952674          20245   340            327            1026           0              18552          7.7040723e-13
        53   46.050299          20645   343            327            1043           0              18932          7.7839383e-13
        54   47.20066           21080   344            329            1072           0              19335          7.8650585e-13
        55   48.410584          21466   344            331            1088           0              19703          7.9454315e-13
        56   49.616752          21869   346            332            1103           1              20087          8.0273067e-13
        57   50.838104          22277   347            332            1126           1              20471          8.1081352e-13
        58   52.112827          22689   349            332            1159           1              20848          8.1880072e-13
        59   53.454503          23076   349            332            1175           2              21218          8.2692367e-13
        60   54.855219          23489   351            332            1196           3              21607          8.3547875e-13
        61   56.274013          23885   354            332            1214           3              21982          8.4410836e-13
        62   57.691523          24292   354            333            1247           4              22354          8.5359833e-13
        63   59.147869          24687   354            334            1265           7              22727          8.6330511e-13
        64   60.621344          25079   354            336            1296           9              23084          8.7314955e-13
        65   62.086151          25487   355            336            1324           9              23463          8.8316596e-13
        66   63.592938          25880   358            338            1347           9              23828          8.9329145e-13
        67   65.111962          26295   360            339            1376           14             24206          9.0358143e-13
        68   66.646891          26681   363            339            1403           23             24553          9.1363649e-13
        69   68.212581          27103   365            339            1430           29             24940          9.2391819e-13
        70   69.889532          27502   366            341            1451           37             25307          9.3408235e-13
        71   71.548042          27916   369            343            1476           46             25682          9.4432203e-13
        72   73.258858          28314   369            345            1507           49             26044          9.5430678e-13
        73   75.010621          28731   369            347            1532           56             26427          9.6504433e-13
        74   76.857619          29125   369            348            1578           62             26768          9.7615826e-13
        75   78.704523          29557   370            349            1608           69             27161          9.8852615e-13
        76   80.598357          29943   372            349            1639           76             27507          1.0010508e-12
        77   82.530615          30356   373            349            1673           80             27881          1.0148047e-12
        78   84.497196          30762   373            349            1716           87             28237          1.0289842e-12
        79   86.499569          31172   374            349            1754           95             28600          1.0436992e-12
        80   88.578979          31579   376            352            1794           105            28952          1.0589031e-12
        81   90.602424          31985   376            352            1832           120            29305          1.0744443e-12
        82   92.644789          32371   376            352            1863           133            29647          1.0901043e-12
        83   94.685091          32776   376            352            1908           148            29992          1.1059338e-12
        84   96.787113          33197   376            352            1967           158            30344          1.1217285e-12
        85   98.950868          33580   376            353            1995           172            30684          1.1374274e-12
        86   101.168            33989   377            354            2043           184            31031          1.1537571e-12
        87   103.41811          34399   377            354            2098           196            31374          1.1701694e-12
        88   105.76356          34779   377            354            2139           207            31702          1.1868866e-12
        89   108.17915          35201   378            355            2190           221            32057          1.204446e-12 
        90   110.75114          35571   378            355            2244           235            32359          1.2231446e-12
        91   113.24658          35995   378            355            2300           251            32711          1.2427906e-12
        92   115.80043          36390   378            356            2375           257            33024          1.2627928e-12
        93   118.37982          36797   378            356            2442           270            33351          1.2837623e-12
        94   121.00605          37183   379            356            2506           283            33659          1.3046238e-12
        95   123.61334          37577   379            356            2570           293            33979          1.3259481e-12
        96   126.28364          37968   379            356            2634           307            34292          1.3469537e-12
        97   129.01534          38364   379            356            2699           317            34613          1.3678608e-12
        98   131.79333          38759   379            356            2768           330            34926          1.3888972e-12
        99   134.60111          39150   381            356            2831           342            35240          1.4099069e-12
       100   137.5757           39563   381            356            2911           351            35564          1.430877e-12 
       101   140.50682          39928   382            356            2985           356            35849          1.4516304e-12
       102   143.53808          40319   382            356            3070           363            36148          1.4726254e-12
       103   146.59946          40744   382            356            3154           370            36482          1.4946925e-12
       104   149.70491          41118   382            357            3239           377            36763          1.5174602e-12
       105   152.85076          41507   382            357            3322           383            37063          1.5409598e-12
       106   156.04633          41895   383            357            3399           389            37367          1.565278e-12 
       107   159.31161          42301   383            357            3494           395            37672          1.5895207e-12
       108   162.62028          42706   384            357            3586           404            37975          1.6140845e-12
       109   165.97352          43089   384            357            3665           414            38269          1.6384815e-12
       110   169.49433          43469   384            357            3767           420            38541          1.6628298e-12
       111   172.94028          43876   384            358            3852           428            38854          1.6871737e-12
       112   176.46442          44272   384            359            3952           437            39140          1.7110509e-12
       113   180.04428          44666   384            359            4043           448            39432          1.7349056e-12
       114   183.69069          45038   384            359            4124           456            39715          1.7588778e-12
       115   187.40669          45471   384            359            4231           466            40031          1.7829149e-12
       116   191.20246          45839   384            359            4328           473            40295          1.8069998e-12
       117   195.04907          46245   384            359            4431           485            40586          1.8317683e-12
       118   198.9696           46638   384            359            4522           503            40870          1.8569791e-12
       119   202.95955          47054   384            359            4612           532            41167          1.8830705e-12
       120   207.12967          47423   384            359            4698           549            41433          1.9097124e-12
       121   211.23523          47801   384            359            4789           569            41700          1.9368459e-12
       122   215.42571          48214   384            359            4875           589            42007          1.9642348e-12
       123   219.66057          48599   384            359            4974           613            42269          1.9918008e-12
       124   223.9766           49014   384            360            5078           639            42553          2.0196174e-12
       125   228.37377          49398   384            360            5171           667            42816          2.0477087e-12
       126   232.84613          49807   384            360            5281           689            43093          2.0760603e-12
       127   237.39849          50204   384            360            5377           725            43358          2.1044218e-12
       128   242.02107          50591   384            360            5461           756            43630          2.133332e-12 
       129   246.72433          50979   384            360            5553           788            43894          2.1636555e-12
       130   251.62328          51370   384            360            5646           827            44153          2.1944787e-12
       131   256.47501          51806   384            360            5773           866            44423          2.226155e-12 
       132   261.40233          52208   384            360            5857           900            44707          2.2582044e-12
       133   266.40337          52590   383            360            5953           955            44939          2.2898851e-12
       134   271.48066          53014   382            360            6048           994            45230          2.3219207e-12
       135   276.64576          53410   382            360            6158           1030           45480          2.3534617e-12
       136   281.91551          53816   382            360            6255           1075           45744          2.3853902e-12
       137   287.28324          54221   382            360            6355           1120           46004          2.4178526e-12
       138   292.74071          54640   382            359            6488           1151           46260          2.4508058e-12
       139   298.28718          55072   382            359            6609           1197           46525          2.4853816e-12
       140   304.07762          55492   382            359            6726           1243           46782          2.5210487e-12
       141   309.83774          55896   382            359            6841           1295           47019          2.5579946e-12
       142   315.71813          56319   382            359            6954           1335           47289          2.5955626e-12
       143   321.68113          56748   382            358            7090           1379           47539          2.6332228e-12
       144   327.73756          57173   382            357            7221           1412           47801          2.671452e-12 
       145   333.92023          57580   382            356            7340           1451           48051          2.7099766e-12
       146   340.18114          58005   382            356            7462           1506           48299          2.7487363e-12
       147   346.61368          58476   382            356            7608           1555           48575          2.7889129e-12
       148   353.17756          58908   382            356            7736           1619           48815          2.8305375e-12
       149   359.80393          59326   382            356            7855           1671           49062          2.8734827e-12
       150   366.7117           59797   381            355            8010           1721           49330          2.918394e-12 
       151   373.58034          60247   381            355            8167           1769           49575          2.9644121e-12
       152   380.56556          60684   381            354            8300           1825           49824          3.0118273e-12
       153   387.65158          61141   380            354            8448           1882           50077          3.0599344e-12
       154   394.85187          61588   380            354            8596           1929           50329          3.1083076e-12
       155   402.18569          62058   380            353            8754           1990           50581          3.1580256e-12
       156   409.63923          62510   380            353            8905           2047           50825          3.209077e-12 
       157   417.19177          62982   379            353            9071           2107           51072          3.2620148e-12
       158   424.91233          63465   379            353            9239           2172           51322          3.317776e-12 
       159   432.7502           63935   379            353            9409           2237           51557          3.376809e-12 
       160   440.90348          64439   379            353            9621           2289           51797          3.4399315e-12
       161   449.00816          64948   377            353            9817           2351           52050          3.5055382e-12
       162   457.26832          65457   377            352            10028          2414           52286          3.5744404e-12
       163   465.65596          65956   377            351            10232          2480           52516          3.6457647e-12
       164   474.20513          66551   377            350            10502          2526           52796          3.7205819e-12
       165   482.90326          67076   377            349            10754          2588           53008          3.8008374e-12
       166   491.75854          67626   378            349            11029          2637           53233          3.8864399e-12
       167   500.78619          68226   378            348            11325          2693           53482          3.9802621e-12
       168   509.96002          68846   375            347            11637          2770           53717          4.0832891e-12
       169   519.32944          69461   375            347            11961          2840           53938          4.1949938e-12
       170   529.02593          70119   375            347            12331          2893           54173          4.314333e-12 
       171   538.73755          70797   375            345            12703          2955           54419          4.440192e-12 
       172   548.6921           71471   375            345            13100          3013           54638          4.572417e-12 
       173   558.77696          72178   374            345            13508          3078           54873          4.7030697e-12
       174   569.05332          72936   374            343            13966          3148           55105          4.8396634e-12
       175   579.51886          73645   373            343            14377          3225           55327          4.9709254e-12
       176   590.1494           74294   372            343            14742          3297           55540          5.1023302e-12
       177   600.9327           75048   372            343            15187          3363           55783          5.2375045e-12
       178   611.91146          75771   372            343            15614          3436           56006          5.3790736e-12
       179   623.00505          76493   371            343            16058          3503           56218          5.5232618e-12
       180   634.4128           77245   371            341            16512          3575           56446          5.6595234e-12
       181   645.92742          78006   371            341            16960          3658           56676          5.8014638e-12
       182   657.58264          78752   371            340            17431          3730           56880          5.9482752e-12
       183   669.4466           79545   371            340            17905          3836           57093          6.1052607e-12
       184   681.46167          80301   371            338            18357          3918           57317          6.2548035e-12
       185   693.61826          81106   371            338            18889          3993           57515          6.4166697e-12
       186   705.87561          81885   371            337            19358          4093           57726          6.5788613e-12
       187   718.21413          82740   371            336            19878          4209           57946          6.7418765e-12
       188   730.64288          83592   371            334            20417          4320           58150          6.9188587e-12
       189   743.19522          84496   370            334            21010          4440           58342          7.1024046e-12
       190   756.02603          85367   370            332            21557          4572           58536          7.2894774e-12
       191   768.75104          86230   370            329            22113          4679           58739          7.4633834e-12
       192   781.58932          87166   370            329            22711          4819           58937          7.652214e-12 
       193   794.44444          88014   369            329            23243          4968           59105          7.8374361e-12
       194   807.4117           88968   367            326            23855          5129           59291          8.0348742e-12
       195   820.44687          89862   367            325            24423          5286           59461          8.233278e-12 
       196   833.57492          90819   365            324            25055          5449           59626          8.4474269e-12
       197   846.7999           91680   364            322            25608          5615           59771          8.6368237e-12
       198   860.13785          92625   362            320            26252          5768           59923          8.827763e-12 
       199   873.51409          93586   358            318            26908          5922           60080          9.0334326e-12
       200   887.13971          94496   357            315            27508          6098           60218          9.2487007e-12
       201   900.72836          95387   353            312            28116          6250           60356          9.4457071e-12
       202   914.35677          96369   352            309            28816          6423           60469          9.650238e-12 
       203   928.08956          97303   350            305            29453          6608           60587          9.8487159e-12
       204   941.81603          98227   349            299            30051          6821           60707          1.0048398e-11
       205   955.63661          99208   347            298            30698          7032           60833          1.0248753e-11
       206   969.58939         100016   344            295            31205          7265           60907          1.0445459e-11
       207   983.61825         100958   343            292            31866          7454           61003          1.0613294e-11
       208   997.76323         101866   342            290            32440          7693           61101          1.0788228e-11
       209   1011.951          102692   337            289            32934          7951           61181          1.0953708e-11
       210   1026.5024         103521   332            284            33392          8248           61265          1.1090238e-11
       211   1040.8267         104310   326            280            33804          8566           61334          1.1217792e-11
       212   1055.2317         104986   322            277            34090          8898           61399          1.1335577e-11
       213   1069.6652         105755   317            272            34534          9170           61462          1.1437849e-11
       214   1084.1757         106521   314            271            34932          9473           61531          1.1552081e-11
       215   1098.7688         107278   309            263            35374          9751           61581          1.1668132e-11
       216   1113.3753         107846   301            259            35607          10056          61623          1.1737048e-11
       217   1128.0925         108548   297            250            35953          10365          61683          1.1807201e-11
       218   1142.9016         109175   290            247            36238          10670          61730          1.1873829e-11
       219   1157.7456         109838   286            241            36629          10903          61779          1.1927561e-11
       220   1172.8668         110409   278            234            36942          11131          61824          1.1985615e-11
       221   1187.8394         110980   267            230            37246          11376          61861          1.2036188e-11
       222   1202.8522         111543   259            224            37531          11626          61903          1.2082907e-11
       223   1217.9324         112188   249            218            37900          11875          61946          1.2133345e-11
       224   1233.0782         112694   241            206            38142          12121          61984          1.2156048e-11
       225   1248.2483         113201   234            196            38390          12372          62009          1.2151405e-11
       226   1263.4693         113722   223            181            38637          12635          62046          1.2189122e-11
       227   1278.7745         114157   204            170            38788          12924          62071          1.2196207e-11
       228   1294.1            114659   194            162            38972          13233          62098          1.2217628e-11
       229   1309.5033         115158   182            153            39104          13589          62130          1.220798e-11 
       230   1325.306          115668   176            144            39281          13906          62161          1.2219016e-11
       231   1340.8628         116149   168            136            39386          14260          62199          1.2219456e-11
       232   1356.4696         116614   153            129            39486          14622          62224          1.2226187e-11
       233   1372.1167         117051   146            117            39576          14958          62254          1.2251509e-11
       234   1387.8033         117457   137            107            39600          15331          62282          1.2213401e-11
       235   1403.5285         117944   132            99             39722          15691          62300          1.2207639e-11
       236   1419.2985         118365   124            94             39787          16030          62330          1.2202012e-11
       237   1435.1428         118797   109            85             39855          16395          62353          1.2208621e-11
       238   1451.0531         119225   102            77             39903          16758          62385          1.2209885e-11
       239   1467.0413         119588   93             73             39903          17108          62411          1.2198406e-11
       240   1483.3714         120003   86             67             39978          17430          62442          1.2182605e-11
       241   1499.4937         120436   77             63             40080          17753          62463          1.2166381e-11
       242   1515.677          120830   71             59             40136          18074          62490          1.2152693e-11
       243   1531.9434         121272   65             55             40268          18365          62519          1.2164239e-11
       244   1548.2776         121701   60             53             40366          18676          62546          1.2162328e-11
       245   1564.6802         122067   56             49             40422          18974          62566          1.2150117e-11
       246   1581.126          122421   51             46             40436          19296          62592          1.2126425e-11
       247   1597.595          122850   49             42             40507          19629          62623          1.2141325e-11
       248   1614.1436         123273   46             41             40616          19922          62648          1.2134704e-11
       249   1630.7187         123652   42             39             40679          20222          62670          1.2139349e-11
       250   1647.6373         123964   40             38             40653          20536          62697          1.2107526e-11
       251   1664.3411         124454   37             35             40818          20843          62721          1.2130011e-11
       252   1681.0708         124796   36             31             40806          21181          62742          1.211815e-11 
       253   1697.8668         125262   32             30             40929          21506          62765          1.2122991e-11
       254   1714.7551         125605   32             27             40898          21854          62794          1.2120268e-11
       255   1731.754          125965   30             26             40892          22208          62809          1.2110064e-11
       256   1748.7765         126318   29             25             40877          22555          62832          1.2093662e-11
       257   1765.8268         126684   27             25             40869          22909          62854          1.2089013e-11
       258   1782.9148         126990   24             23             40806          23263          62874          1.2077983e-11
       259   1800.0699         127405   24             23             40868          23596          62894          1.2087962e-11
       260   1817.5578         127813   24             23             40856          23990          62920          1.2096398e-11
       261   1834.8852         128199   24             23             40833          24383          62936          1.2094924e-11
       262   1852.22           128554   24             21             40755          24791          62963          1.2089313e-11
       263   1869.6399         128867   23             20             40632          25213          62979          1.2097156e-11
       264   1887.1786         129279   23             20             40567          25667          63002          1.2090207e-11
       265   1904.7492         129628   22             20             40473          26092          63021          1.2085889e-11
       266   1922.3524         129869   22             20             40235          26549          63043          1.2063498e-11
       267   1939.9926         130353   22             19             40265          26987          63060          1.2094505e-11
       268   1957.7532         130751   22             18             40179          27448          63084          1.2115765e-11
       269   1975.5204         131080   21             18             40037          27902          63102          1.208996e-11 
       270   1993.6676         131377   21             18             39801          28413          63124          1.209036e-11 
       271   2011.4954         131664   21             18             39617          28867          63141          1.2086248e-11
       272   2029.4804         132076   21             18             39472          29403          63162          1.2094113e-11
       273   2047.4935         132447   21             17             39282          29945          63182          1.210106e-11 
       274   2065.5267         132737   21             17             39036          30463          63200          1.208432e-11 
       275   2083.5723         133098   21             17             38898          30940          63222          1.2105439e-11
       276   2101.6519         133427   21             17             38717          31432          63240          1.2117701e-11
       277   2119.8934         133723   21             17             38528          31896          63261          1.2112674e-11
       278   2138.0639         134145   21             17             38465          32361          63281          1.213383e-11 
       279   2156.347          134530   21             17             38366          32824          63302          1.2150231e-11
       280   2175.0262         134786   21             17             38137          33289          63322          1.2144028e-11
       281   2193.3449         135180   21             17             38021          33780          63341          1.216414e-11 
       282   2211.7984         135536   21             17             37893          34243          63362          1.2155046e-11
       283   2230.3146         135792   21             17             37640          34732          63382          1.2148958e-11
       284   2248.936          136060   21             16             37455          35160          63408          1.2138047e-11
       285   2267.5843         136461   21             16             37408          35596          63420          1.2169271e-11
       286   2286.2203         136850   21             16             37340          36026          63447          1.217263e-11 
       287   2304.9365         137181   21             16             37259          36426          63459          1.2193395e-11
       288   2323.7073         137469   21             16             37120          36826          63486          1.2189658e-11
       289   2342.462          137796   21             16             37056          37203          63500          1.2225927e-11
       290   2361.6629         138119   21             16             36954          37605          63523          1.2207176e-11
       291   2380.5375         138443   21             16             36835          38030          63541          1.222982e-11 
       292   2399.5175         138866   21             16             36877          38386          63566          1.2259974e-11
       293   2418.525          139180   21             16             36807          38756          63580          1.2269652e-11
       294   2437.6415         139492   21             16             36717          39131          63607          1.2271203e-11
       295   2456.7771         139814   21             16             36635          39522          63620          1.2271432e-11
       296   2475.9626         140154   21             16             36590          39881          63646          1.2305484e-11
       297   2495.2427         140430   21             16             36498          40233          63662          1.2297965e-11
       298   2514.5728         140759   21             16             36412          40626          63684          1.2305876e-11
       299   2533.8975         141098   21             16             36359          40997          63705          1.2316587e-11
       300   2553.5978         141426   21             16             36316          41350          63723          1.2312857e-11
       301   2573.0913         141735   21             16             36256          41694          63748          1.2322286e-11
       302   2592.5748         142048   21             16             36228          42016          63767          1.2327647e-11
       303   2612.1849         142367   21             16             36208          42336          63786          1.233965e-11 
       304   2631.7816         142741   21             16             36250          42645          63809          1.2363382e-11
       305   2651.4371         143080   21             16             36239          42974          63830          1.2377229e-11
       306   2671.1217         143322   21             16             36129          43306          63850          1.2384774e-11
       307   2690.8937         143719   21             16             36166          43643          63873          1.2406154e-11
       308   2710.7135         144016   21             16             36121          43970          63888          1.2422368e-11
       309   2730.6109         144288   21             16             36043          44294          63914          1.2409024e-11
       310   2750.8272         144625   21             16             36043          44618          63927          1.2442479e-11
       311   2770.8013         144908   21             16             35973          44944          63954          1.2435325e-11
       312   2790.8048         145301   21             16             36050          45245          63969          1.2462135e-11
       313   2810.8998         145576   21             16             35984          45561          63994          1.2442675e-11
       314   2831.0626         145924   21             16             35962          45912          64013          1.2476098e-11
       315   2851.2981         146252   21             16             35970          46214          64031          1.2479946e-11
       316   2871.6645         146546   21             16             35957          46498          64054          1.2490099e-11
       317   2892.0507         146812   21             16             35871          46834          64070          1.2502923e-11
       318   2912.5873         147222   21             16             35938          47151          64096          1.251651e-11 
       319   2933.1877         147513   20             16             35863          47499          64115          1.2524694e-11
       320   2954.1436         147802   20             16             35811          47820          64135          1.251979e-11 
Loop time of 2954.14 on 16 procs for 320 steps with 147802 atoms

97.8% CPU use with 16 MPI tasks x 1 OpenMP threads

MPI task timing breakdown:
Section |  min time  |  avg time  |  max time  |%varavg| %total
---------------------------------------------------------------
Pair    | 753.11     | 825.59     | 1020.1     | 249.3 | 27.95
Neigh   | 460.49     | 548.49     | 854.51     | 476.0 | 18.57
Comm    | 352.99     | 424.71     | 513.16     | 263.2 | 14.38
Output  | 32.606     | 32.606     | 32.607     |   0.0 |  1.10
Modify  | 520.88     | 1108.1     | 1300.2     | 669.3 | 37.51
Other   |            | 14.62      |            |       |  0.49

Nlocal:        9237.62 ave       13855 max        7806 min
Histogram: 7 3 2 2 0 0 0 0 1 1
Nghost:           7192 ave        9760 max        6031 min
Histogram: 7 1 0 3 1 1 1 0 1 1
Neighs:        89569.1 ave      105329 max       83831 min
Histogram: 7 3 0 1 2 1 0 1 0 1

Total # of neighbors = 1433106
Ave neighs/atom = 9.6961205
Neighbor list builds = 28089
Dangerous builds = 27769

Total wall time: 0:49:32
