LAMMPS (23 Jun 2022 - Update 4)
  using 1 OpenMP thread(s) per MPI task
package omp 0
using multi-threaded neighbor list subroutines
#-----------------------------------------------------------------------------#
#                NUFEB Simulation: Heterotrophic Biofilm Growth               #
#-----------------------------------------------------------------------------#


#-----------------------------System Settings---------------------------------#

units si                                    # using si units (m, s, kg)
atom_style      coccus                      # using nufeb coccus atom style
atom_modify     map array sort 10 0         # map array - find atoms using indices
		                            # sort every 10

boundary        pp pp ff                    # periodic boundaries in x and y
                                            # fixed boundary in z

newton          off                         # forces between local and ghost
                                            # atoms are computed in each
					     # processor without communication

processors      * * 1                       # processor grid

comm_modify     vel yes                     # communicate velocities for ghost atoms

read_data       atom_ch.in	             # read atom.in file which defines domain size
Reading data file ...
  orthogonal box = (0 0 0) to (6e-05 6e-05 6e-05)
  4 by 4 by 1 MPI processor grid
  reading atoms ...
  150 atoms
  read_data CPU = 0.021 seconds
                                            # and initial atoms


#--------------------Microbes and Functional Groups-------------------------#

group           CROSS1   type 1               # assign type 1,2 atoms to CROSS group
50 atoms in group CROSS1
group           CROSS2   type 2
50 atoms in group CROSS2
group		CHEATER  type 3
50 atoms in group CHEATER
group           dead     type 4
0 atoms in group dead
group		EPS	 type 5
0 atoms in group EPS

neighbor        5e-7 bin                   # setting neighbour skin distance and style

neigh_modify    check yes                  # rebuild neighbour list if any atom
                                           # had moved more than half the skin distance


#--------------------------Mesh Grid and Substrates--------------------------#

# defining grid sytle, substrate names, and grid size
grid_style      nufeb/chemostat 3 sub metab1 metab2 5e-6

# set diffusion boundary conditions and initial concentrations (liquid:kg/m3)
grid_modify     set sub      pp pp nd  1.8e-4
No /omp style for force computation currently active
grid_modify     set metab1   pp pp nd  1e-4
No /omp style for force computation currently active
grid_modify     set metab2   pp pp nd  1e-4
No /omp style for force computation currently active


#--------------------------Biological Processes-------------------------------#

# heterotrophs growth
fix growth_cross1 CROSS1 nufeb/growth/cross1 sub 3.5e-5 metab2 4e-3 metab1 growth 0.009 yield 0.6 decay 2.6e-6 metab1_exp 20 epsyield 0.12 epsdens 30

fix growth_cross2 CROSS2 nufeb/growth/cross2 sub 3.5e-5 metab1 4e-3 metab2 growth 0.009 yield 0.6 decay 2.6e-6 metab2_exp 20 epsyield 0.12 epsdens 30

fix growth_cheater CHEATER nufeb/growth/cheater sub 3.5e-5 metab1 1e-3 metab2 1e-3 growth 0.009 yield 0.6 decay 2.6e-6

# heterotrophs division, division diameter: 1.36e-6
fix div1 CROSS1 nufeb/division/coccus 1.36e-6 1399
fix div2 CROSS2 nufeb/division/coccus 1.36e-6 5290
fix div3 CHEATER nufeb/division/coccus 1.36e-6 11773

fix death1 CROSS1 nufeb/death/diameter dead 5.43e-7
fix death2 CROSS2 nufeb/death/diameter dead 5.43e-7
fix death3 CHEATER nufeb/death/diameter dead 5.43e-7

# EPS secretion from heterotrophs
fix eps1 CROSS1 nufeb/eps_secretion 5 EPS 1.1 30 20848
fix eps2 CROSS2 nufeb/eps_secretion 5 EPS 1.1 30 32515

#---------------------------Physical Processes--------------------------------#

pair_style  gran/hooke/history 1e-4 NULL 1e-5 NULL 0.0 0    # pairwise interaction
pair_coeff  * *                                             # between atoms

# pairwise interaction between z-wall and atoms
fix wall all wall/gran hooke/history 1e-3 NULL 1e-4 NULL 0 0 zplane 0.0 1e-04

fix vis all viscous 1e-5                                    # viscous damping force

fix grav all gravity 9.81 vector 0.0 0.0 -1.0

fix nve all nve/limit 1e-7                                  # NVE integration with
                                                            # maximum distance limit


#---------------------------Post-Physical Processes---------------------------#

fix coeff_sub all nufeb/diffusion_coeff sub ratio 0.8       # defining diffusion coeff in the biofilm
fix coeff_metab1 all nufeb/diffusion_coeff metab1 ratio 0.8    # region is 80% of the value in liquid
fix coeff_metab2 all nufeb/diffusion_coeff metab2 ratio 0.8

#---------------------------Chemical Processes---------------------------------#

fix diff_sub all nufeb/diffusion_reaction sub 1e-9        # diffusion reaction for updating
fix diff_metab1 all nufeb/diffusion_reaction metab1 4e-9     # distribusion of substrate concentration
fix diff_metab2 all nufeb/diffusion_reaction metab2 4e-9

#--------------------------Computations and Outputs----------------------------#

variable mass equal "mass(all)"                             # total mass
variable ncross1 equal "count(CROSS1)"                      # total # of CROSS1
variable ncross2 equal "count(CROSS2)"                      # total # of CROSS2
variable ncheater equal "count(CHEATER)"
variable ndead equal "count(dead)"
variable neps equal "count(EPS)"

shell mkdir vtk_EPS_ch                                            # dump vtk files to /vtk folder
dump du1 all vtk 10 vtk_EPS_ch/dump*.vtu id type diameter         # require build NUFEB with vtk option
dump du2 all grid/vtk 10 vtk_EPS_ch/dump_%_*.vti con rea den gro

#dump du3 all movie 10 movie.avi type diameter view 80 60    # dump video
#dump_modify du3 acolor 1 blue acolor 2 lightgrey framerate 10


                                                            # dump hdf5 files to /hdf5 folder
#shell mkdir hdf5                                           # require build NUFEB with hdf5 option
#dump du3 all nufeb/hdf5 10 dump.h5 id type x y z vx vy vz fx fy fz radius conc reac

thermo_style custom step cpu atoms v_ncross1 v_ncross2 v_ncheater v_ndead v_neps v_mass     # screen and log outputs
thermo 1
thermo_modify   lost ignore

#-----------------------------------Run----------------------------------------#

# issue run command, define timesteps for physical (pairdt) and chemical (diffdt) processes
run_style nufeb diffdt 1e-4 difftol 1e-6 pairdt 1e-2 pairtol 1 pairmax 1000 diffmax 5000

timestep 12000                                               # define biological timesteps (1000s)

run 320                                                    # growing biofilm for 900x1000s
Generated 0 of 6 mixed pair_coeff terms from geometric mixing rule
Last active /omp style is pair_style gran/hooke/history/omp
Neighbor list info ...
  update every 1 steps, delay 10 steps, check yes
  max neighbors/atom: 2000, page size: 100000
  master list distance cutoff = 2.49e-06
  ghost atom cutoff = 2.49e-06
  binsize = 1.245e-06, bins = 49 49 49
  1 neighbor lists, perpetual/occasional/extra = 1 0 0
  (1) pair gran/hooke/history/omp, perpetual
      attributes: half, newton off, size, history, omp
      pair build: half/size/bin/newtoff/omp
      stencil: full/bin/3d
      bin: standard
Per MPI rank memory allocation (min/avg/max) = 11.02 | 11.02 | 11.02 Mbytes
   Step          CPU          Atoms      v_ncross1      v_ncross2      v_ncheater      v_ndead         v_neps         v_mass    
         0   0                    150   50             50             50             0              0              1.3295396e-13
         1   0.39120293           432   90             85             86             0              171            1.7264673e-13
         2   0.77235337           798   122            125            135            0              416            1.9565715e-13
         3   1.0960106           1116   130            143            177            0              666            2.1472904e-13
         4   1.4184668           1432   137            151            203            0              941            2.3254368e-13
         5   1.6205722           1744   143            160            215            0              1226           2.5029716e-13
         6   1.8131942           2069   147            169            232            0              1521           2.6775567e-13
         7   1.9883814           2411   152            181            257            0              1821           2.8513965e-13
         8   2.1505234           2761   161            184            283            0              2133           3.0211361e-13
         9   2.2864853           3120   168            194            293            0              2465           3.1875314e-13
        10   2.4465826           3491   174            203            314            0              2800           3.3512571e-13
        11   2.5775663           3867   182            209            333            0              3143           3.5110902e-13
        12   2.6976548           4247   186            217            350            0              3494           3.6631683e-13
        13   2.8031681           4628   188            222            366            0              3852           3.8072964e-13
        14   2.8964643           4996   191            230            382            0              4193           3.9478258e-13
        15   3.0058412           5393   196            237            398            0              4562           4.0841237e-13
        16   3.1061421           5767   201            241            415            0              4910           4.2152916e-13
        17   3.2225335           6165   208            243            436            0              5278           4.3424354e-13
        18   3.317536            6548   212            246            458            0              5632           4.464647e-13 
        19   3.4195103           6949   217            249            477            0              6006           4.5865784e-13
        20   4.0668148           7353   231            253            487            0              6382           4.7009533e-13
        21   4.1735475           7753   236            256            500            0              6761           4.8111583e-13
        22   4.2705697           8153   242            262            510            0              7139           4.9160757e-13
        23   4.3553312           8563   246            266            524            0              7527           5.0167442e-13
        24   4.4364893           8944   247            275            533            0              7889           5.1133355e-13
        25   4.5033145           9372   251            278            551            0              8292           5.2077794e-13
        26   4.5834827           9767   253            282            562            0              8670           5.297371e-13 
        27   4.6992042          10184   255            285            573            0              9071           5.3853258e-13
        28   4.791718           10582   261            288            587            0              9446           5.4680681e-13
        29   4.8933409          10972   263            290            592            0              9827           5.5485903e-13
        30   5.0526849          11377   268            296            598            0              10215          5.6277573e-13
        31   5.1600474          11779   272            297            604            0              10606          5.7030858e-13
        32   5.3003394          12183   276            302            622            0              10983          5.776565e-13 
        33   5.4346466          12578   280            303            628            0              11367          5.8490607e-13
        34   5.5820197          13008   284            305            642            0              11777          5.9221994e-13
        35   5.7634403          13389   288            309            650            0              12142          5.9912738e-13
        36   5.9585155          13817   291            312            661            0              12553          6.0647791e-13
        37   6.1877417          14206   293            316            672            0              12925          6.1367776e-13
        38   6.4675657          14626   296            317            685            0              13328          6.2087564e-13
        39   6.8840761          15028   298            318            696            0              13716          6.280667e-13 
        40   7.3118192          15455   300            325            709            0              14121          6.3511027e-13
        41   7.9144183          15867   304            328            716            0              14519          6.4234614e-13
        42   8.5908662          16278   307            329            734            0              14908          6.4946958e-13
        43   9.354595           16698   311            333            746            0              15308          6.5680036e-13
        44   10.271137          17132   315            334            765            0              15718          6.6413013e-13
        45   11.196659          17538   315            336            783            0              16104          6.7158937e-13
        46   12.146848          17961   318            338            796            0              16509          6.7911885e-13
        47   13.106072          18377   319            340            813            0              16905          6.8667302e-13
        48   14.052311          18794   320            341            831            0              17302          6.9424829e-13
        49   15.022329          19190   322            342            845            0              17681          7.0137963e-13
        50   16.071851          19610   324            343            860            0              18083          7.0853792e-13
        51   17.076775          20023   326            346            872            0              18479          7.1555271e-13
        52   18.101431          20451   328            347            890            0              18886          7.2252483e-13
        53   19.136241          20864   330            348            905            0              19281          7.2900144e-13
        54   20.207974          21276   332            349            923            0              19672          7.3531295e-13
        55   21.282983          21686   334            351            934            1              20066          7.4120167e-13
        56   22.378503          22118   337            353            950            2              20476          7.4699554e-13
        57   23.554736          22548   338            355            962            3              20890          7.5256216e-13
        58   24.78401           22950   343            357            975            3              21272          7.5857212e-13
        59   25.984584          23381   345            359            992            4              21681          7.6487812e-13
        60   27.358849          23809   345            362            1003           5              22094          7.7119487e-13
        61   28.672633          24228   345            362            1019           6              22496          7.7772374e-13
        62   30.070095          24645   347            362            1037           6              22893          7.8445421e-13
        63   31.490924          25067   347            365            1052           6              23297          7.9198356e-13
        64   32.957309          25471   347            366            1066           10             23682          7.9981769e-13
        65   34.405579          25891   348            367            1081           12             24083          8.0845283e-13
        66   35.86313           26320   350            368            1107           14             24481          8.1708079e-13
        67   37.354294          26730   350            370            1129           17             24864          8.2576753e-13
        68   38.844313          27153   353            371            1147           19             25263          8.3470586e-13
        69   40.335184          27572   353            371            1171           21             25656          8.4363486e-13
        70   41.931634          28000   356            374            1195           26             26049          8.5213803e-13
        71   43.546084          28416   356            374            1207           32             26447          8.604185e-13 
        72   45.131168          28834   358            375            1222           35             26844          8.6828555e-13
        73   46.731424          29254   359            376            1251           38             27230          8.7604834e-13
        74   48.395215          29684   360            381            1268           46             27629          8.8358337e-13
        75   50.076741          30121   363            381            1283           53             28041          8.9111901e-13
        76   51.858733          30524   364            382            1302           61             28415          8.984162e-13 
        77   53.71237           30996   367            384            1330           65             28850          9.0666591e-13
        78   55.631104          31388   368            385            1342           75             29218          9.1507074e-13
        79   57.565307          31827   369            386            1363           81             29628          9.2444297e-13
        80   59.694645          32232   369            386            1382           87             30008          9.3467389e-13
        81   61.758465          32671   370            386            1408           95             30412          9.4586309e-13
        82   63.829171          33093   370            387            1441           106            30789          9.5780519e-13
        83   65.930512          33510   371            388            1462           112            31177          9.7050777e-13
        84   68.042121          33932   373            389            1498           120            31552          9.8351511e-13
        85   70.173075          34366   373            390            1530           129            31944          9.971239e-13 
        86   72.302292          34784   374            390            1572           135            32313          1.0105627e-12
        87   74.47344           35230   374            392            1617           142            32705          1.0239534e-12
        88   76.717439          35623   374            392            1641           151            33065          1.0372455e-12
        89   79.008444          36058   375            393            1674           167            33449          1.0512098e-12
        90   81.497681          36483   376            393            1710           175            33829          1.0655251e-12
        91   83.963895          36908   377            393            1751           189            34198          1.0807391e-12
        92   86.511268          37330   377            393            1788           205            34567          1.0970202e-12
        93   89.074391          37778   377            394            1854           215            34938          1.1146728e-12
        94   91.70937           38185   377            395            1901           225            35287          1.1331617e-12
        95   94.392091          38640   377            396            1969           239            35659          1.1532072e-12
        96   97.095822          39053   377            396            2023           252            36005          1.1741663e-12
        97   99.820125          39473   377            397            2075           266            36358          1.1956667e-12
        98   102.54667          39881   377            397            2134           274            36699          1.2175898e-12
        99   105.31416          40319   377            397            2219           285            37041          1.2393787e-12
       100   108.20007          40737   377            397            2280           295            37388          1.2610201e-12
       101   111.02873          41152   379            397            2356           306            37714          1.2821692e-12
       102   113.92423          41558   379            397            2422           313            38047          1.3029303e-12
       103   116.883            41994   379            397            2505           319            38394          1.3237569e-12
       104   119.97029          42393   379            397            2569           326            38722          1.3445009e-12
       105   123.08919          42798   379            397            2637           334            39051          1.3662755e-12
       106   126.28348          43228   379            397            2722           340            39390          1.388597e-12 
       107   129.51169          43620   379            397            2800           346            39698          1.4120636e-12
       108   132.80325          44042   379            398            2876           355            40034          1.436086e-12 
       109   136.13707          44446   380            398            2960           358            40350          1.4606514e-12
       110   139.59326          44853   380            398            3042           363            40670          1.4855029e-12
       111   142.97933          45260   381            398            3115           374            40992          1.5100477e-12
       112   146.42287          45672   381            398            3207           378            41308          1.5343533e-12
       113   149.91942          46085   381            398            3302           381            41623          1.5588018e-12
       114   153.45922          46496   381            398            3376           395            41946          1.5828982e-12
       115   157.07416          46920   381            398            3467           397            42277          1.6066875e-12
       116   160.78971          47317   381            398            3557           406            42575          1.6304474e-12
       117   164.56568          47738   381            398            3656           413            42890          1.6546216e-12
       118   168.39431          48145   381            398            3732           424            43210          1.6793964e-12
       119   172.27625          48547   381            398            3817           436            43515          1.7052458e-12
       120   176.33807          48963   381            398            3904           446            43834          1.7316676e-12
       121   180.33977          49382   381            398            4007           461            44135          1.7585792e-12
       122   184.30948          49774   381            398            4079           478            44438          1.7856347e-12
       123   188.33798          50170   381            398            4166           492            44733          1.8122286e-12
       124   192.4541           50596   381            398            4263           504            45050          1.8384172e-12
       125   196.63272          50976   381            398            4343           519            45335          1.8644888e-12
       126   200.88602          51412   380            398            4449           542            45643          1.8902151e-12
       127   205.23554          51807   380            398            4511           569            45949          1.9157076e-12
       128   209.67263          52232   380            398            4609           592            46253          1.9411425e-12
       129   214.18811          52638   380            398            4680           620            46560          1.967707e-12 
       130   218.90198          53042   380            398            4765           649            46850          1.9940295e-12
       131   223.55776          53437   380            398            4841           673            47145          2.0212543e-12
       132   228.29119          53840   380            398            4917           704            47441          2.0492167e-12
       133   233.09292          54256   380            398            5005           736            47737          2.0782293e-12
       134   237.96064          54671   380            398            5094           763            48036          2.1079958e-12
       135   242.92783          55091   379            398            5179           798            48337          2.1381567e-12
       136   247.97273          55495   378            398            5255           835            48629          2.1685219e-12
       137   253.09076          55905   378            398            5335           869            48925          2.1990795e-12
       138   258.28448          56327   378            399            5437           904            49209          2.2293651e-12
       139   263.57485          56758   377            399            5534           945            49503          2.2608265e-12
       140   269.06703          57215   376            399            5640           995            49805          2.2940708e-12
       141   274.47645          57613   376            398            5733           1039           50067          2.3274253e-12
       142   279.99287          58047   376            398            5850           1071           50352          2.3625426e-12
       143   285.56868          58489   376            398            5949           1115           50651          2.3992702e-12
       144   291.22855          58928   376            398            6071           1160           50923          2.4369148e-12
       145   296.99802          59382   376            398            6189           1203           51216          2.4750149e-12
       146   302.87711          59836   376            397            6337           1248           51478          2.5135397e-12
       147   308.84231          60296   377            397            6443           1304           51775          2.5525643e-12
       148   314.85408          60740   377            397            6535           1365           52066          2.592567e-12 
       149   320.95969          61188   376            398            6672           1415           52327          2.6323798e-12
       150   327.3269           61671   376            398            6821           1463           52613          2.6731861e-12
       151   333.63618          62136   376            398            6952           1511           52899          2.7153387e-12
       152   340.03847          62599   376            398            7107           1552           53166          2.7585744e-12
       153   346.55131          63066   375            400            7246           1597           53448          2.8030881e-12
       154   353.1396           63550   375            400            7407           1638           53730          2.8491189e-12
       155   359.81829          64011   375            401            7573           1680           53982          2.8967801e-12
       156   366.57701          64493   375            401            7731           1721           54265          2.9461012e-12
       157   373.4357           64981   376            401            7890           1767           54547          2.9965646e-12
       158   380.40688          65485   376            401            8073           1823           54812          3.0480625e-12
       159   387.48271          66005   376            400            8274           1866           55089          3.1006857e-12
       160   395.1017           66495   375            399            8426           1928           55367          3.1549704e-12
       161   402.36273          66984   375            399            8611           1981           55618          3.2113496e-12
       162   409.72431          67484   375            400            8799           2020           55890          3.2700845e-12
       163   417.219            68034   375            400            9006           2080           56173          3.3311616e-12
       164   424.81312          68524   375            399            9213           2123           56414          3.3954759e-12
       165   432.52761          69081   376            399            9460           2162           56684          3.4637278e-12
       166   440.40018          69626   375            399            9700           2209           56943          3.5346826e-12
       167   448.38208          70215   375            399            9979           2246           57216          3.6114602e-12
       168   456.44297          70780   374            400            10216          2303           57487          3.690827e-12 
       169   464.63428          71365   374            400            10516          2354           57721          3.773267e-12 
       170   473.11202          71952   374            400            10783          2407           57988          3.859279e-12 
       171   481.60701          72559   375            400            11082          2453           58249          3.9495146e-12
       172   490.3212           73178   374            399            11396          2503           58506          4.0476166e-12
       173   499.11109          73816   374            397            11727          2558           58760          4.1547032e-12
       174   508.07052          74476   374            397            12072          2615           59018          4.2725092e-12
       175   517.2055           75168   374            397            12467          2665           59265          4.4025802e-12
       176   526.53764          75931   374            396            12915          2726           59520          4.5424121e-12
       177   536.10126          76682   373            396            13359          2768           59786          4.6872602e-12
       178   545.83751          77432   374            396            13788          2819           60055          4.8307155e-12
       179   555.84003          78217   374            396            14266          2875           60306          4.9776204e-12
       180   566.2319           78980   374            396            14740          2921           60549          5.121368e-12 
       181   576.65113          79777   374            395            15221          2975           60812          5.2795542e-12
       182   587.16662          80564   374            395            15700          3014           61081          5.4323733e-12
       183   597.81551          81361   374            395            16212          3061           61319          5.5810804e-12
       184   608.60803          82214   374            395            16751          3106           61588          5.7271915e-12
       185   619.52077          83015   374            395            17255          3163           61828          5.8851454e-12
       186   630.55172          83843   374            394            17761          3225           62089          6.0317586e-12
       187   641.6634           84636   373            393            18240          3292           62338          6.1858104e-12
       188   652.9264           85509   373            393            18806          3358           62579          6.3491496e-12
       189   664.27385          86396   373            392            19345          3446           62840          6.5199902e-12
       190   675.95226          87266   373            392            19900          3539           63062          6.6890622e-12
       191   687.45976          88182   373            392            20435          3663           63319          6.8582939e-12
       192   698.97119          89048   372            390            20967          3757           63562          7.033146e-12 
       193   710.55604          89943   371            390            21526          3861           63795          7.2100294e-12
       194   722.23235          90840   371            388            22065          3995           64021          7.3763991e-12
       195   733.97501          91750   371            386            22630          4122           64241          7.5664524e-12
       196   745.77917          92705   371            385            23194          4281           64474          7.7566832e-12
       197   757.59766          93660   371            383            23784          4431           64691          7.953232e-12 
       198   769.48959          94593   371            382            24345          4591           64904          8.1503677e-12
       199   781.40709          95560   371            379            24943          4771           65096          8.3339574e-12
       200   793.69214          96556   370            377            25591          4933           65285          8.5442349e-12
       201   806.00306          97529   369            374            26178          5145           65463          8.7489583e-12
       202   818.18233          98497   368            374            26748          5343           65664          8.9570108e-12
       203   830.59836          99418   368            371            27284          5560           65835          9.14428e-12  
       204   842.90687         100380   366            369            27853          5795           65997          9.3448737e-12
       205   855.2157          101368   363            368            28478          6019           66140          9.5449314e-12
       206   867.56948         102270   363            366            28956          6302           66283          9.7445539e-12
       207   880.176           103281   362            363            29560          6578           66418          9.9559603e-12
       208   892.69269         104217   361            359            30128          6833           66536          1.0159674e-11
       209   905.27406         105173   359            353            30657          7132           66672          1.0361398e-11
       210   918.08826         106106   357            351            31206          7401           66791          1.0553405e-11
       211   930.69385         107020   356            346            31685          7721           66912          1.071812e-11 
       212   943.38189         107859   353            339            32157          8011           66999          1.0881533e-11
       213   956.11912         108804   351            335            32713          8309           67096          1.103599e-11 
       214   968.86567         109512   348            327            33040          8625           67172          1.1168524e-11
       215   981.66629         110271   345            323            33465          8889           67249          1.130314e-11 
       216   994.50732         111049   343            318            33924          9152           67312          1.1425669e-11
       217   1007.4127         111850   339            312            34394          9402           67403          1.1556119e-11
       218   1020.382          112569   334            304            34818          9640           67473          1.1635744e-11
       219   1033.3797         113286   332            299            35253          9856           67546          1.1730858e-11
       220   1046.7059         113934   324            295            35654          10054          67607          1.1798681e-11
       221   1059.7762         114547   321            288            36028          10254          67656          1.18683e-11  
       222   1072.8845         115169   315            271            36414          10462          67707          1.1932249e-11
       223   1086.0153         115814   310            262            36838          10651          67753          1.1997808e-11
       224   1099.2162         116354   297            254            37155          10857          67791          1.203674e-11 
       225   1112.4555         116903   292            245            37447          11088          67831          1.2075303e-11
       226   1125.7461         117445   289            240            37760          11280          67876          1.2092235e-11
       227   1139.0635         118020   278            234            38058          11534          67916          1.2134597e-11
       228   1152.3892         118540   270            225            38270          11814          67961          1.2150253e-11
       229   1165.7553         119015   257            220            38427          12104          68007          1.2165616e-11
       230   1179.4614         119617   246            215            38724          12380          68052          1.2199968e-11
       231   1192.9056         120075   241            199            38848          12706          68081          1.2198618e-11
       232   1206.4397         120545   236            187            38944          13066          68112          1.2214763e-11
       233   1219.9437         121006   222            183            39066          13400          68135          1.2198383e-11
       234   1233.4776         121560   217            172            39255          13747          68169          1.2232243e-11
       235   1247.0709         121952   207            165            39300          14079          68201          1.2223619e-11
       236   1260.7014         122373   196            157            39347          14436          68237          1.2204394e-11
       237   1274.3798         122829   188            151            39452          14770          68268          1.2203281e-11
       238   1288.1096         123342   182            143            39647          15071          68299          1.2223251e-11
       239   1301.892          123681   176            136            39638          15397          68334          1.21729e-11  
       240   1316.0062         124154   168            125            39749          15738          68374          1.2187611e-11
       241   1329.868          124590   161            120            39849          16056          68404          1.2187026e-11
       242   1343.8081         124997   153            117            39902          16385          68440          1.2171867e-11
       243   1357.7814         125481   148            112            40009          16741          68471          1.2187663e-11
       244   1371.7695         125862   137            107            40006          17109          68503          1.2146594e-11
       245   1385.8135         126283   129            102            40108          17405          68539          1.2168519e-11
       246   1399.8773         126702   121            99             40169          17737          68576          1.2162047e-11
       247   1413.9889         127060   116            93             40174          18074          68603          1.2154899e-11
       248   1428.2033         127526   112            89             40267          18420          68638          1.2146056e-11
       249   1442.4148         127919   108            81             40302          18756          68672          1.2125097e-11
       250   1456.9848         128338   98             76             40387          19073          68704          1.2132444e-11
       251   1471.3192         128771   95             72             40449          19418          68737          1.213935e-11 
       252   1485.6942         129095   87             70             40452          19715          68771          1.2124037e-11
       253   1500.1008         129557   83             67             40552          20052          68803          1.2131365e-11
       254   1514.5923         129988   82             65             40673          20335          68833          1.214191e-11 
       255   1529.1595         130323   79             64             40639          20676          68865          1.2112342e-11
       256   1543.7195         130762   75             62             40727          20998          68900          1.2116921e-11
       257   1558.2873         131026   74             61             40621          21336          68934          1.2100987e-11
       258   1572.905          131434   72             58             40656          21680          68968          1.2102494e-11
       259   1587.6128         131936   71             58             40802          22014          68991          1.2112747e-11
       260   1602.6673         132355   68             55             40845          22363          69024          1.2125277e-11
       261   1617.468          132702   68             51             40825          22701          69057          1.20941e-11  
       262   1632.3266         132998   66             50             40739          23051          69092          1.2083127e-11
       263   1647.2118         133357   64             44             40678          23448          69123          1.2081004e-11
       264   1662.1924         133730   63             44             40612          23853          69158          1.2072809e-11
       265   1677.1679         134109   61             42             40567          24255          69184          1.2086443e-11
       266   1692.1614         134556   60             42             40560          24675          69219          1.2089902e-11
       267   1707.2391         134874   57             42             40428          25089          69258          1.2090741e-11
       268   1722.356          135285   55             41             40379          25533          69277          1.2105078e-11
       269   1737.5022         135636   54             41             40226          26005          69310          1.2089922e-11
       270   1753.0178         136058   54             41             40152          26463          69348          1.2101483e-11
       271   1768.2761         136373   53             41             39978          26928          69373          1.2104797e-11
       272   1783.5738         136685   52             41             39795          27392          69405          1.208712e-11 
       273   1798.893          137019   50             39             39591          27899          69440          1.2082635e-11
       274   1814.2627         137446   49             38             39481          28406          69472          1.2088396e-11
       275   1829.6828         137803   48             36             39365          28857          69497          1.2101003e-11
       276   1845.1404         138186   48             35             39246          29322          69535          1.212542e-11 
       277   1860.6649         138426   48             32             39013          29771          69562          1.2104943e-11
       278   1876.2115         138848   48             32             38897          30278          69593          1.2116833e-11
       279   1891.7901         139189   48             31             38719          30767          69624          1.211672e-11 
       280   1907.7372         139584   48             30             38668          31185          69653          1.2133201e-11
       281   1923.4334         139959   47             30             38530          31666          69686          1.2117914e-11
       282   1939.1608         140306   46             30             38370          32142          69718          1.2136848e-11
       283   1954.8724         140592   45             29             38155          32613          69750          1.2145747e-11
       284   1970.6353         140943   45             29             38005          33084          69780          1.2149207e-11
       285   1986.4551         141319   44             29             37870          33569          69807          1.2150888e-11
       286   2002.2913         141687   43             29             37731          34044          69840          1.2150575e-11
       287   2018.2372         142030   41             27             37576          34514          69872          1.2171937e-11
       288   2034.1951         142388   40             27             37439          34982          69900          1.2193266e-11
       289   2050.2477         142745   40             26             37343          35403          69933          1.2194259e-11
       290   2066.6557         143064   40             26             37221          35817          69960          1.2208429e-11
       291   2082.8513         143406   40             26             37124          36224          69992          1.2214276e-11
       292   2098.9819         143808   40             26             37123          36599          70020          1.2237364e-11
       293   2115.29           144121   40             25             36985          37022          70049          1.2237777e-11
       294   2131.6445         144390   40             24             36840          37407          70079          1.2216318e-11
       295   2147.9878         144760   40             24             36776          37809          70111          1.2234697e-11
       296   2164.3919         145127   39             24             36750          38179          70135          1.2263605e-11
       297   2180.9134         145431   38             24             36642          38558          70169          1.2263712e-11
       298   2197.3393         145788   38             24             36602          38928          70196          1.2283933e-11
       299   2213.9107         146149   38             23             36575          39285          70228          1.2293947e-11
       300   2230.7556         146483   38             23             36525          39641          70256          1.2292818e-11
       301   2247.4203         146823   37             21             36492          39987          70286          1.2303612e-11
       302   2264.1523         147071   36             21             36391          40312          70311          1.2303525e-11
       303   2280.9585         147479   36             21             36426          40652          70344          1.2313947e-11
       304   2297.638          147826   36             21             36363          41036          70370          1.2341276e-11
       305   2314.2944         148231   36             21             36402          41371          70401          1.2370219e-11
       306   2331.0678         148483   36             21             36287          41713          70426          1.235823e-11 
       307   2348.0184         148823   35             21             36227          42083          70457          1.2381708e-11
       308   2365.0089         149076   35             20             36146          42393          70482          1.2369262e-11
       309   2382.0376         149423   34             20             36139          42720          70510          1.2368355e-11
       310   2399.4921         149785   33             19             36110          43084          70539          1.2389499e-11
       311   2416.5389         150109   33             19             36075          43419          70563          1.2414098e-11
       312   2433.7366         150446   31             18             36068          43737          70592          1.2411268e-11
       313   2450.9455         150712   31             18             35961          44087          70615          1.2435444e-11
       314   2468.0677         151082   31             18             35989          44400          70644          1.2418629e-11
       315   2485.2093         151389   31             18             35961          44713          70666          1.2468628e-11
       316   2502.4107         151780   31             18             36004          45032          70695          1.2482934e-11
       317   2519.6961         152142   30             18             36033          45344          70717          1.2491607e-11
       318   2536.9982         152382   30             18             35910          45678          70746          1.2475333e-11
       319   2554.3685         152677   30             18             35862          45999          70768          1.2499995e-11
       320   2572.0819         153028   30             18             35859          46321          70800          1.2505731e-11
Loop time of 2572.08 on 16 procs for 320 steps with 153028 atoms

98.5% CPU use with 16 MPI tasks x 1 OpenMP threads

MPI task timing breakdown:
Section |  min time  |  avg time  |  max time  |%varavg| %total
---------------------------------------------------------------
Pair    | 603.26     | 671.67     | 894.67     | 316.7 | 26.11
Neigh   | 507.21     | 600.27     | 951.93     | 509.4 | 23.34
Comm    | 201.92     | 237.07     | 277.75     | 159.8 |  9.22
Output  | 6.7546     | 6.7548     | 6.7558     |   0.0 |  0.26
Modify  | 439.67     | 1044       | 1231.9     | 680.8 | 40.59
Other   |            | 12.32      |            |       |  0.48

Nlocal:        9564.25 ave       14692 max        8222 min
Histogram: 10 2 0 2 0 0 0 0 1 1
Nghost:        7401.56 ave        9973 max        6310 min
Histogram: 7 2 1 2 0 0 2 0 1 1
Neighs:        94315.4 ave      113289 max       87127 min
Histogram: 5 4 2 1 0 2 1 0 0 1

Total # of neighbors = 1509047
Ave neighs/atom = 9.8612476
Neighbor list builds = 28167
Dangerous builds = 27847

Total wall time: 0:42:52
