LAMMPS (23 Jun 2022 - Update 4)
  using 1 OpenMP thread(s) per MPI task
package omp 0
using multi-threaded neighbor list subroutines
#-----------------------------------------------------------------------------#
#                NUFEB Simulation: Heterotrophic Biofilm Growth               #
#-----------------------------------------------------------------------------#


#-----------------------------System Settings---------------------------------#

units si                                    # using si units (m, s, kg)
atom_style      coccus                      # using nufeb coccus atom style
atom_modify     map array sort 10 0         # map array - find atoms using indices
		                            # sort every 10

boundary        pp pp ff                    # periodic boundaries in x and y
                                            # fixed boundary in z

newton          off                         # forces between local and ghost
                                            # atoms are computed in each
					     # processor without communication

processors      * * 1                       # processor grid

comm_modify     vel yes                     # communicate velocities for ghost atoms

read_data       atom_ch.in	             # read atom.in file which defines domain size
Reading data file ...
  orthogonal box = (0 0 0) to (6e-05 6e-05 6e-05)
  4 by 4 by 1 MPI processor grid
  reading atoms ...
  150 atoms
  read_data CPU = 0.010 seconds
                                            # and initial atoms


#--------------------Microbes and Functional Groups-------------------------#

group           CROSS1   type 1               # assign type 1,2 atoms to CROSS group
50 atoms in group CROSS1
group           CROSS2   type 2
50 atoms in group CROSS2
group		CHEATER  type 3
50 atoms in group CHEATER
group           dead     type 4
0 atoms in group dead
group		EPS	 type 5
0 atoms in group EPS

neighbor        5e-7 bin                   # setting neighbour skin distance and style

neigh_modify    check yes                  # rebuild neighbour list if any atom
                                           # had moved more than half the skin distance


#--------------------------Mesh Grid and Substrates--------------------------#

# defining grid sytle, substrate names, and grid size
grid_style      nufeb/chemostat 3 sub metab1 metab2 5e-6

# set diffusion boundary conditions and initial concentrations (liquid:kg/m3)
grid_modify     set sub      pp pp nd  1.8e-4
No /omp style for force computation currently active
grid_modify     set metab1   pp pp nd  1e-4
No /omp style for force computation currently active
grid_modify     set metab2   pp pp nd  1e-4
No /omp style for force computation currently active


#--------------------------Biological Processes-------------------------------#

# heterotrophs growth
fix growth_cross1 CROSS1 nufeb/growth/cross1 sub 3.5e-5 metab2 4e-3 metab1 growth 0.009 yield 0.6 decay 2.6e-6 metab1_exp 20 epsyield 0.12 epsdens 30

fix growth_cross2 CROSS2 nufeb/growth/cross2 sub 3.5e-5 metab1 4e-3 metab2 growth 0.009 yield 0.6 decay 2.6e-6 metab2_exp 20 epsyield 0.12 epsdens 30

fix growth_cheater CHEATER nufeb/growth/cheater sub 3.5e-5 metab1 1e-3 metab2 1e-3 growth 0.009 yield 0.6 decay 2.6e-6

# heterotrophs division, division diameter: 1.36e-6
fix div1 CROSS1 nufeb/division/coccus 1.36e-6 1064
fix div2 CROSS2 nufeb/division/coccus 1.36e-6 3950
fix div3 CHEATER nufeb/division/coccus 1.36e-6 8758

fix death1 CROSS1 nufeb/death/diameter dead 5.43e-7
fix death2 CROSS2 nufeb/death/diameter dead 5.43e-7
fix death3 CHEATER nufeb/death/diameter dead 5.43e-7

# EPS secretion from heterotrophs
fix eps1 CROSS1 nufeb/eps_secretion 5 EPS 1.1 30 15488
fix eps2 CROSS2 nufeb/eps_secretion 5 EPS 1.1 30 24140

#---------------------------Physical Processes--------------------------------#

pair_style  gran/hooke/history 1e-4 NULL 1e-5 NULL 0.0 0    # pairwise interaction
pair_coeff  * *                                             # between atoms

# pairwise interaction between z-wall and atoms
fix wall all wall/gran hooke/history 1e-3 NULL 1e-4 NULL 0 0 zplane 0.0 1e-04

fix vis all viscous 1e-5                                    # viscous damping force

fix grav all gravity 9.81 vector 0.0 0.0 -1.0

fix nve all nve/limit 1e-7                                  # NVE integration with
                                                            # maximum distance limit


#---------------------------Post-Physical Processes---------------------------#

fix coeff_sub all nufeb/diffusion_coeff sub ratio 0.8       # defining diffusion coeff in the biofilm
fix coeff_metab1 all nufeb/diffusion_coeff metab1 ratio 0.8    # region is 80% of the value in liquid
fix coeff_metab2 all nufeb/diffusion_coeff metab2 ratio 0.8

#---------------------------Chemical Processes---------------------------------#

fix diff_sub all nufeb/diffusion_reaction sub 1e-9        # diffusion reaction for updating
fix diff_metab1 all nufeb/diffusion_reaction metab1 4e-9     # distribusion of substrate concentration
fix diff_metab2 all nufeb/diffusion_reaction metab2 4e-9

#--------------------------Computations and Outputs----------------------------#

variable mass equal "mass(all)"                             # total mass
variable ncross1 equal "count(CROSS1)"                      # total # of CROSS1
variable ncross2 equal "count(CROSS2)"                      # total # of CROSS2
variable ncheater equal "count(CHEATER)"
variable ndead equal "count(dead)"
variable neps equal "count(EPS)"

shell mkdir vtk_EPS_ch                                            # dump vtk files to /vtk folder
dump du1 all vtk 10 vtk_EPS_ch/dump*.vtu id type diameter         # require build NUFEB with vtk option
dump du2 all grid/vtk 10 vtk_EPS_ch/dump_%_*.vti con rea den gro

#dump du3 all movie 10 movie.avi type diameter view 80 60    # dump video
#dump_modify du3 acolor 1 blue acolor 2 lightgrey framerate 10


                                                            # dump hdf5 files to /hdf5 folder
#shell mkdir hdf5                                           # require build NUFEB with hdf5 option
#dump du3 all nufeb/hdf5 10 dump.h5 id type x y z vx vy vz fx fy fz radius conc reac

thermo_style custom step cpu atoms v_ncross1 v_ncross2 v_ncheater v_ndead v_neps v_mass     # screen and log outputs
thermo 1
thermo_modify   lost ignore

#-----------------------------------Run----------------------------------------#

# issue run command, define timesteps for physical (pairdt) and chemical (diffdt) processes
run_style nufeb diffdt 1e-4 difftol 1e-6 pairdt 1e-2 pairtol 1 pairmax 1000 diffmax 5000

timestep 12000                                               # define biological timesteps (1000s)

run 320                                                    # growing biofilm for 900x1000s
Generated 0 of 6 mixed pair_coeff terms from geometric mixing rule
Last active /omp style is pair_style gran/hooke/history/omp
Neighbor list info ...
  update every 1 steps, delay 10 steps, check yes
  max neighbors/atom: 2000, page size: 100000
  master list distance cutoff = 2.49e-06
  ghost atom cutoff = 2.49e-06
  binsize = 1.245e-06, bins = 49 49 49
  1 neighbor lists, perpetual/occasional/extra = 1 0 0
  (1) pair gran/hooke/history/omp, perpetual
      attributes: half, newton off, size, history, omp
      pair build: half/size/bin/newtoff/omp
      stencil: full/bin/3d
      bin: standard
Per MPI rank memory allocation (min/avg/max) = 11.02 | 11.02 | 11.02 Mbytes
   Step          CPU          Atoms      v_ncross1      v_ncross2      v_ncheater      v_ndead         v_neps         v_mass    
         0   0                    150   50             50             50             0              0              1.3295396e-13
         1   0.38492885           432   90             85             86             0              171            1.725697e-13 
         2   0.77007577           797   120            126            136            0              415            1.9534168e-13
         3   1.1013348           1125   131            145            177            0              672            2.1457598e-13
         4   1.4076968           1441   138            155            197            0              951            2.3262169e-13
         5   1.6255894           1759   144            160            217            0              1238           2.5013987e-13
         6   1.8171184           2083   148            166            234            0              1535           2.6762323e-13
         7   1.9746355           2428   152            178            257            0              1841           2.8486792e-13
         8   2.1509902           2796   166            188            278            0              2164           3.0184916e-13
         9   2.3133497           3173   169            199            300            0              2505           3.186901e-13 
        10   2.4647623           3536   170            211            313            0              2842           3.3494483e-13
        11   2.5812207           3913   174            220            334            0              3185           3.5083728e-13
        12   2.7149835           4290   177            225            356            0              3532           3.6622989e-13
        13   2.8199746           4686   187            227            376            0              3896           3.8108975e-13
        14   2.939825            5069   192            231            393            0              4253           3.954641e-13 
        15   3.042747            5463   197            237            413            0              4616           4.0956171e-13
        16   3.1568792           5855   202            242            431            0              4980           4.2333392e-13
        17   3.2538718           6238   204            245            448            0              5341           4.3699514e-13
        18   3.3477171           6620   209            248            468            0              5695           4.5019297e-13
        19   3.4342857           7014   213            254            482            0              6065           4.6296235e-13
        20   3.5749321           7415   215            260            504            0              6436           4.7547866e-13
        21   3.6693269           7803   217            263            525            0              6798           4.8767372e-13
        22   3.7669567           8190   220            266            539            0              7165           4.9928373e-13
        23   3.851872            8584   225            270            551            0              7538           5.102762e-13 
        24   3.9612994           8984   230            277            559            0              7918           5.210503e-13 
        25   4.0868434           9378   235            281            575            0              8287           5.3161123e-13
        26   4.1862916           9785   237            286            594            0              8668           5.4146499e-13
        27   4.2698125          10170   240            289            607            0              9034           5.5088789e-13
        28   4.3490486          10561   242            289            626            0              9404           5.6015206e-13
        29   4.4268135          10959   246            293            641            0              9779           5.6901925e-13
        30   4.5776434          11363   251            298            652            0              10162          5.7765717e-13
        31   4.6663685          11758   255            301            658            0              10544          5.8585419e-13
        32   4.7951993          12152   257            305            669            0              10921          5.9388945e-13
        33   4.9471857          12534   260            308            678            0              11288          6.0149138e-13
        34   5.1112607          12939   264            310            686            0              11679          6.0875338e-13
        35   5.262987           13317   269            311            697            0              12040          6.1557884e-13
        36   5.415432           13727   271            312            708            0              12436          6.2236679e-13
        37   5.6007432          14116   272            314            716            0              12814          6.2880504e-13
        38   5.8167196          14501   273            320            720            0              13188          6.3512139e-13
        39   6.1124838          14911   276            321            724            0              13590          6.4136188e-13
        40   6.4356782          15277   276            326            728            0              13947          6.4704974e-13
        41   6.6882485          15670   278            327            734            0              14331          6.526739e-13 
        42   7.170522           16075   281            331            743            0              14720          6.5817364e-13
        43   7.8531506          16463   286            332            749            0              15096          6.6278982e-13
        44   8.5828129          16858   287            334            754            0              15483          6.6747622e-13
        45   9.4729777          17267   294            337            763            0              15873          6.7207837e-13
        46   10.374437          17667   297            340            768            0              16262          6.7663873e-13
        47   11.304226          18083   299            343            774            0              16667          6.8111786e-13
        48   12.242083          18481   301            347            782            0              17051          6.8521277e-13
        49   13.19634           18915   304            348            789            0              17474          6.8947882e-13
        50   14.227599          19308   306            349            795            0              17858          6.9332093e-13
        51   15.219096          19720   310            352            803            0              18255          6.9729698e-13
        52   16.232148          20135   312            352            812            0              18659          7.0121748e-13
        53   17.292345          20557   312            354            816            0              19075          7.0516448e-13
        54   18.357438          20945   312            354            818            0              19461          7.087963e-13 
        55   19.459598          21360   314            356            821            0              19869          7.1273667e-13
        56   20.588494          21775   314            357            827            0              20277          7.1614616e-13
        57   21.723664          22182   315            359            833            0              20675          7.1958444e-13
        58   22.889725          22598   320            361            835            0              21082          7.2274519e-13
        59   24.054711          22998   322            361            836            0              21479          7.2569235e-13
        60   25.306242          23418   323            364            839            3              21889          7.2869803e-13
        61   26.51044           23823   324            367            843            4              22285          7.3159496e-13
        62   27.764626          24250   324            372            848            5              22701          7.3472259e-13
        63   29.03376           24678   325            373            852            6              23122          7.3749414e-13
        64   30.340233          25092   326            374            851            8              23533          7.4028859e-13
        65   31.647379          25505   328            375            858            8              23936          7.4292825e-13
        66   32.979787          25919   328            376            862            8              24345          7.4559308e-13
        67   34.331552          26325   329            377            864            9              24746          7.4818456e-13
        68   35.734729          26744   329            379            864            10             25162          7.5095695e-13
        69   37.154465          27163   332            380            866            13             25572          7.5414666e-13
        70   38.669456          27580   332            382            866            16             25984          7.5706496e-13
        71   40.153215          27996   333            384            867            19             26393          7.60012e-13  
        72   41.703307          28436   337            386            868            21             26824          7.6285475e-13
        73   43.250756          28835   338            388            868            23             27218          7.653186e-13 
        74   44.848182          29281   340            389            869            28             27655          7.683692e-13 
        75   46.489761          29680   340            391            871            32             28046          7.7154708e-13
        76   48.139816          30119   342            393            869            41             28474          7.7519364e-13
        77   49.833553          30561   343            395            870            47             28906          7.7895114e-13
        78   51.563484          30974   344            397            872            53             29308          7.8271711e-13
        79   53.338732          31417   348            398            877            59             29735          7.8679583e-13
        80   55.263385          31848   350            399            884            62             30153          7.9115133e-13
        81   57.176793          32276   350            400            888            70             30568          7.9613564e-13
        82   59.152961          32715   351            402            898            73             30991          8.0155393e-13
        83   61.086577          33144   353            405            904            81             31401          8.077772e-13 
        84   63.124227          33578   354            405            919            85             31815          8.1420224e-13
        85   65.190293          34006   356            407            936            88             32219          8.217584e-13 
        86   67.251677          34435   356            410            946            95             32628          8.2979477e-13
        87   69.358306          34881   356            412            964            102            33047          8.3850809e-13
        88   71.485865          35279   357            412            979            108            33423          8.4755822e-13
        89   73.651906          35732   358            413            1005           113            33843          8.5732309e-13
        90   75.983214          36163   359            416            1023           122            34243          8.6767368e-13
        91   78.196415          36598   359            417            1052           123            34647          8.7831708e-13
        92   80.47236           37015   359            418            1081           130            35027          8.8907197e-13
        93   82.838538          37449   359            418            1103           134            35435          9.004141e-13 
        94   85.222985          37862   360            419            1135           140            35808          9.1250162e-13
        95   87.654394          38310   361            421            1169           148            36211          9.2511292e-13
        96   90.155933          38719   362            423            1199           156            36579          9.3814785e-13
        97   92.658811          39138   362            423            1237           163            36953          9.5175619e-13
        98   95.192033          39557   364            425            1265           172            37331          9.6576143e-13
        99   97.729974          39973   364            426            1300           181            37702          9.802096e-13 
       100   100.42485          40377   365            426            1340           187            38059          9.9481601e-13
       101   103.09587          40812   366            428            1381           197            38440          1.0098173e-12
       102   105.738            41223   366            430            1424           200            38803          1.024781e-12 
       103   108.44516          41650   367            432            1465           204            39182          1.0396993e-12
       104   111.17083          42052   369            434            1501           211            39537          1.0539844e-12
       105   113.88864          42465   370            435            1534           220            39906          1.0680237e-12
       106   116.67885          42899   370            435            1593           225            40276          1.0819141e-12
       107   119.59997          43291   371            437            1630           227            40626          1.0957514e-12
       108   122.53529          43721   372            438            1677           235            40999          1.1097542e-12
       109   125.52489          44119   373            438            1722           238            41348          1.1238469e-12
       110   128.72435          44514   375            440            1757           243            41699          1.1382189e-12
       111   131.8658           44926   378            442            1793           253            42060          1.1534134e-12
       112   135.02856          45354   378            445            1850           257            42424          1.1691866e-12
       113   138.24171          45775   378            447            1903           263            42784          1.185282e-12 
       114   141.46694          46169   379            450            1949           269            43122          1.2014999e-12
       115   144.71795          46576   381            452            1992           272            43479          1.2175528e-12
       116   148.0112           46984   384            453            2047           274            43826          1.2334199e-12
       117   151.36033          47412   386            453            2103           281            44189          1.2490577e-12
       118   154.74413          47809   387            453            2146           286            44537          1.2644464e-12
       119   158.16786          48219   388            455            2191           291            44894          1.2792846e-12
       120   161.80436          48622   389            456            2240           298            45239          1.2934578e-12
       121   165.37162          49028   391            456            2285           304            45592          1.3073507e-12
       122   169.05438          49455   393            458            2333           308            45963          1.3212969e-12
       123   172.86432          49837   394            459            2365           315            46304          1.3353559e-12
       124   176.74232          50232   394            460            2406           322            46650          1.349944e-12 
       125   180.65395          50634   395            462            2455           340            46982          1.3647927e-12
       126   184.67337          51030   396            464            2487           356            47327          1.379644e-12 
       127   188.7263           51439   398            465            2543           360            47673          1.3954199e-12
       128   192.81832          51808   398            468            2587           371            47984          1.4109946e-12
       129   196.98031          52235   400            469            2641           381            48344          1.4269227e-12
       130   201.31526          52630   401            470            2681           398            48680          1.4428246e-12
       131   205.58777          53050   403            471            2735           409            49032          1.4585509e-12
       132   209.90013          53436   403            472            2784           425            49352          1.4735406e-12
       133   214.3659           53860   404            474            2821           447            49714          1.4874147e-12
       134   218.85406          54266   405            476            2860           462            50063          1.5013647e-12
       135   223.41209          54667   406            477            2901           482            50401          1.5151072e-12
       136   228.0873           55094   409            479            2944           503            50759          1.5288554e-12
       137   232.84051          55533   410            481            2988           530            51124          1.5430548e-12
       138   237.70812          55964   410            481            3042           553            51478          1.5572208e-12
       139   242.64432          56404   411            483            3078           574            51858          1.5723292e-12
       140   247.7822           56829   414            484            3132           597            52202          1.5875344e-12
       141   252.89066          57300   415            485            3180           623            52597          1.6026492e-12
       142   258.05717          57741   416            486            3227           649            52963          1.6178589e-12
       143   263.30882          58211   417            486            3282           669            53357          1.6332429e-12
       144   268.65167          58671   417            488            3335           697            53734          1.6481848e-12
       145   274.10285          59153   418            489            3388           716            54142          1.663142e-12 
       146   279.61304          59616   419            489            3445           736            54527          1.6778615e-12
       147   285.25061          60082   419            490            3491           760            54922          1.6920217e-12
       148   291.01572          60588   419            491            3554           775            55349          1.7065834e-12
       149   296.87895          61069   419            492            3611           797            55750          1.7214584e-12
       150   303.00108          61543   419            492            3675           812            56145          1.7369429e-12
       151   309.07093          62029   419            492            3732           829            56557          1.7533984e-12
       152   315.23933          62540   420            493            3819           837            56971          1.7704936e-12
       153   321.55806          63044   421            493            3884           854            57392          1.7883416e-12
       154   327.98138          63544   421            493            3959           866            57805          1.806874e-12 
       155   334.47065          64056   422            493            4027           886            58228          1.8252293e-12
       156   341.12286          64562   422            494            4106           899            58641          1.8442816e-12
       157   347.86472          65085   423            495            4188           916            59063          1.8636312e-12
       158   354.75856          65584   423            495            4254           937            59475          1.8830488e-12
       159   361.78849          66103   423            495            4326           958            59901          1.9030768e-12
       160   369.14615          66636   421            495            4410           978            60332          1.924408e-12 
       161   376.43109          67175   421            495            4515           997            60747          1.9470876e-12
       162   383.83452          67723   421            495            4607           1010           61190          1.971241e-12 
       163   391.39421          68234   421            495            4704           1032           61582          1.9960439e-12
       164   399.05507          68756   421            495            4787           1051           62002          2.0218844e-12
       165   406.7665           69259   421            496            4881           1073           62388          2.0484704e-12
       166   414.66557          69787   421            496            4967           1098           62805          2.0759569e-12
       167   422.64284          70321   419            496            5078           1117           63211          2.1033754e-12
       168   430.753            70852   419            496            5186           1143           63608          2.1306116e-12
       169   439.00022          71389   418            496            5267           1175           64033          2.158228e-12 
       170   447.55073          71922   417            496            5383           1196           64430          2.1867565e-12
       171   456.08434          72458   416            496            5500           1222           64824          2.2162001e-12
       172   464.7383           73016   416            496            5617           1246           65241          2.247252e-12 
       173   473.51653          73545   415            496            5724           1271           65639          2.280544e-12 
       174   482.45793          74101   415            496            5861           1302           66027          2.3156565e-12
       175   491.52503          74652   415            496            5966           1343           66432          2.3518055e-12
       176   500.71937          75197   415            497            6083           1377           66825          2.3884404e-12
       177   510.03588          75748   414            497            6209           1404           67224          2.425447e-12 
       178   519.47814          76290   414            497            6319           1454           67606          2.4625152e-12
       179   529.08475          76843   414            497            6428           1498           68006          2.5002786e-12
       180   538.9873           77397   414            497            6543           1546           68397          2.5402628e-12
       181   548.88478          77940   414            497            6682           1589           68758          2.5815256e-12
       182   558.86921          78527   413            498            6816           1621           69179          2.6259109e-12
       183   568.99009          79069   413            498            6963           1664           69531          2.6725145e-12
       184   579.28324          79682   413            498            7117           1704           69950          2.7209721e-12
       185   589.69871          80244   413            498            7271           1744           70318          2.7701143e-12
       186   600.27176          80813   413            498            7438           1784           70680          2.8208967e-12
       187   611.13902          81408   413            498            7579           1835           71083          2.8731064e-12
       188   622.16795          81967   413            498            7735           1886           71435          2.9273535e-12
       189   633.35826          82555   412            498            7897           1937           71811          2.9843267e-12
       190   644.93046          83153   412            498            8060           1999           72184          3.0442379e-12
       191   656.4181           83754   411            498            8239           2059           72547          3.1086103e-12
       192   668.04854          84393   409            496            8453           2119           72916          3.1775173e-12
       193   679.87939          85003   409            496            8669           2170           73259          3.2491106e-12
       194   691.84866          85672   409            496            8911           2216           73640          3.323955e-12 
       195   703.99464          86294   409            496            9127           2280           73982          3.401538e-12 
       196   716.34075          86948   409            496            9364           2339           74340          3.4831465e-12
       197   728.8513           87631   409            496            9616           2391           74719          3.5681109e-12
       198   741.5375           88273   409            496            9877           2451           75040          3.6609207e-12
       199   754.41981          89011   409            496            10169          2524           75413          3.7626125e-12
       200   767.69075          89714   409            496            10489          2579           75741          3.8738484e-12
       201   781.05645          90461   408            493            10851          2633           76076          3.9973239e-12
       202   794.65541          91243   408            493            11232          2688           76422          4.1325265e-12
       203   808.50623          92059   408            493            11672          2744           76742          4.2790893e-12
       204   822.62254          92882   408            493            12092          2799           77090          4.424296e-12 
       205   836.97519          93712   407            493            12526          2869           77417          4.5796912e-12
       206   851.54264          94544   407            493            12972          2937           77735          4.7302959e-12
       207   866.31919          95387   406            493            13413          3002           78073          4.8788658e-12
       208   881.29957          96228   405            493            13868          3070           78392          5.0336578e-12
       209   896.47979          97041   405            493            14289          3135           78719          5.189662e-12 
       210   912.08106          97900   404            493            14741          3216           79046          5.3340497e-12
       211   927.60255          98777   404            493            15235          3292           79353          5.4963092e-12
       212   943.22324          99639   402            493            15707          3381           79656          5.6497093e-12
       213   958.94414         100480   402            493            16159          3456           79970          5.8144596e-12
       214   974.76256         101356   401            492            16626          3538           80299          5.9677914e-12
       215   990.69034         102189   399            491            17125          3613           80561          6.1332516e-12
       216   1006.7113         103109   398            491            17618          3696           80906          6.2970029e-12
       217   1022.8205         104052   397            491            18212          3769           81183          6.4761352e-12
       218   1039.0011         104942   397            489            18716          3878           81462          6.6538714e-12
       219   1055.3075         105869   396            489            19240          3986           81758          6.8365135e-12
       220   1071.9335         106829   394            487            19822          4104           82022          7.0237133e-12
       221   1088.0355         107774   392            486            20385          4235           82276          7.2258409e-12
       222   1104.1842         108769   391            485            20976          4361           82556          7.4178529e-12
       223   1120.4277         109719   389            485            21543          4490           82812          7.6102897e-12
       224   1136.7615         110663   385            485            22121          4630           83042          7.8088459e-12
       225   1153.2031         111674   384            484            22763          4766           83277          8.0142591e-12
       226   1169.7465         112690   381            484            23398          4926           83501          8.2451443e-12
       227   1186.3905         113730   379            483            24065          5074           83729          8.4608882e-12
       228   1203.118          114639   376            478            24622          5232           83931          8.66081e-12  
       229   1219.9566         115608   375            477            25244          5385           84127          8.8688412e-12
       230   1237.1557         116617   372            475            25919          5557           84294          9.0783029e-12
       231   1254.1915         117611   371            474            26582          5700           84484          9.2802427e-12
       232   1271.2972         118620   369            472            27260          5856           84663          9.5091271e-12
       233   1288.4713         119544   364            470            27908          6006           84796          9.7121934e-12
       234   1305.6783         120530   362            466            28574          6175           84953          9.9130187e-12
       235   1322.9786         121523   361            465            29237          6370           85090          1.0129222e-11
       236   1340.354          122440   356            461            29849          6559           85215          1.0324166e-11
       237   1357.8128         123331   352            459            30393          6780           85347          1.0503287e-11
       238   1375.3465         124251   350            456            31005          6990           85450          1.069574e-11 
       239   1392.9997         125164   346            451            31639          7180           85548          1.0858496e-11
       240   1411.0772         125968   339            450            32151          7381           85647          1.1019054e-11
       241   1428.9513         126821   333            447            32707          7584           85750          1.1173197e-11
       242   1446.9413         127679   329            442            33248          7824           85836          1.13e-11     
       243   1464.9927         128413   326            436            33625          8112           85914          1.144172e-11 
       244   1483.118          129156   323            434            34035          8374           85990          1.1545149e-11
       245   1501.3675         129903   319            432            34443          8652           86057          1.1666682e-11
       246   1519.699          130557   315            429            34791          8902           86120          1.1747687e-11
       247   1538.1519         131256   314            425            35160          9168           86189          1.1839836e-11
       248   1556.7019         131903   309            422            35517          9415           86240          1.1902285e-11
       249   1575.3071         132537   301            417            35855          9659           86305          1.196242e-11 
       250   1594.2822         133115   297            408            36176          9881           86353          1.2008516e-11
       251   1613.0255         133700   289            405            36466          10115          86425          1.2057358e-11
       252   1631.824          134312   285            396            36795          10371          86465          1.2086822e-11
       253   1650.6649         134862   279            395            37078          10607          86503          1.2132839e-11
       254   1669.5806         135479   268            391            37435          10823          86562          1.2175434e-11
       255   1688.5686         136073   261            381            37777          11051          86603          1.2226236e-11
       256   1707.5915         136514   256            375            37955          11281          86647          1.2235933e-11
       257   1726.7219         137076   250            368            38253          11516          86689          1.2267394e-11
       258   1745.9364         137509   245            363            38410          11749          86742          1.2236752e-11
       259   1765.1468         138030   239            357            38671          11974          86789          1.2256989e-11
       260   1784.7413         138521   234            352            38844          12265          86826          1.2264546e-11
       261   1804.152          138963   233            346            38967          12540          86877          1.2263302e-11
       262   1823.6937         139482   223            329            39169          12847          86914          1.2268584e-11
       263   1843.3114         140024   215            316            39376          13154          86963          1.2268479e-11
       264   1862.9748         140438   210            301            39469          13461          86997          1.2282194e-11
       265   1882.7331         140798   205            294            39476          13787          87036          1.2247222e-11
       266   1902.5792         141239   202            284            39575          14100          87078          1.2239695e-11
       267   1922.5046         141735   190            273            39712          14428          87132          1.2244141e-11
       268   1942.4745         142090   185            266            39678          14787          87174          1.2206149e-11
       269   1962.5298         142594   180            257            39849          15090          87218          1.220293e-11 
       270   1983.0115         143070   175            251            39997          15377          87270          1.222568e-11 
       271   2003.2219         143463   167            242            40055          15678          87321          1.2213529e-11
       272   2023.4857         143919   157            232            40156          16018          87356          1.2231712e-11
       273   2043.7904         144364   148            222            40244          16347          87403          1.2211157e-11
       274   2064.2364         144821   136            207            40334          16707          87437          1.2205632e-11
       275   2084.7509         145212   129            199            40375          17034          87475          1.2201496e-11
       276   2105.3388         145592   119            193            40444          17322          87514          1.2186902e-11
       277   2125.9721         146008   116            183            40479          17655          87575          1.217959e-11 
       278   2146.7134         146492   111            173            40608          17974          87626          1.2180348e-11
       279   2167.4839         146767   106            161            40535          18295          87670          1.2143482e-11
       280   2188.6499         147215   99             147            40646          18623          87700          1.216277e-11 
       281   2209.6347         147694   96             144            40786          18932          87736          1.216764e-11 
       282   2230.6754         148057   93             133            40783          19263          87785          1.2140049e-11
       283   2251.8159         148524   90             123            40871          19608          87832          1.2162288e-11
       284   2272.9939         148878   83             111            40868          19947          87869          1.2148624e-11
       285   2294.2238         149294   76             109            40879          20319          87911          1.2152575e-11
       286   2315.53           149622   69             102            40802          20700          87949          1.2121026e-11
       287   2336.9078         150026   67             97             40795          21084          87983          1.2124704e-11
       288   2358.5405         150413   66             92             40812          21422          88021          1.2130046e-11
       289   2380.2249         150783   62             89             40771          21795          88066          1.2114428e-11
       290   2402.3791         151194   59             82             40764          22185          88104          1.2109249e-11
       291   2424.0756         151553   51             77             40693          22602          88130          1.2128036e-11
       292   2445.8458         151940   50             71             40634          23018          88167          1.2122827e-11
       293   2467.6733         152404   45             69             40651          23427          88212          1.2142231e-11
       294   2489.6003         152708   45             65             40508          23851          88239          1.2128215e-11
       295   2511.6313         153081   41             60             40403          24307          88270          1.2127841e-11
       296   2533.6978         153410   39             59             40243          24764          88305          1.211428e-11 
       297   2555.8686         153813   37             54             40144          25242          88336          1.2110295e-11
       298   2578.0427         154168   34             52             40026          25690          88366          1.2111634e-11
       299   2600.2966         154537   33             48             39851          26205          88400          1.2118157e-11
       300   2622.9535         154890   29             48             39723          26662          88428          1.2127642e-11
       301   2645.2861         155339   28             46             39661          27143          88461          1.2143733e-11
       302   2667.7146         155582   28             46             39402          27621          88485          1.2132218e-11
       303   2690.1733         155927   25             43             39264          28078          88517          1.2141175e-11
       304   2712.7057         156346   25             43             39159          28573          88546          1.215136e-11 
       305   2735.3343         156752   25             42             39066          29042          88577          1.2154042e-11
       306   2757.9736         157081   24             42             38887          29524          88604          1.2170009e-11
       307   2780.6312         157402   22             39             38689          30020          88632          1.2164922e-11
       308   2803.4372         157775   22             38             38552          30504          88659          1.2166904e-11
       309   2826.3276         158057   22             38             38328          30978          88691          1.2172613e-11
       310   2849.669          158505   22             37             38224          31508          88714          1.2199477e-11
       311   2872.6775         158847   22             37             38059          31979          88750          1.2206025e-11
       312   2895.6337         159221   22             37             37953          32437          88772          1.2242678e-11
       313   2918.7744         159552   22             36             37792          32896          88806          1.2227096e-11
       314   2941.9726         159862   22             36             37651          33324          88829          1.2216243e-11
       315   2965.2553         160147   22             36             37475          33751          88863          1.2213877e-11
       316   2988.6096         160568   21             35             37447          34180          88885          1.2247969e-11
       317   3012.0417         160962   21             34             37400          34590          88917          1.2263496e-11
       318   3035.5538         161229   20             34             37222          35011          88942          1.2254609e-11
       319   3059.1678         161601   20             34             37177          35396          88974          1.2250655e-11
       320   3083.2203         161978   20             33             37085          35844          88996          1.2283723e-11
Loop time of 3083.22 on 16 procs for 320 steps with 161978 atoms

98.0% CPU use with 16 MPI tasks x 1 OpenMP threads

MPI task timing breakdown:
Section |  min time  |  avg time  |  max time  |%varavg| %total
---------------------------------------------------------------
Pair    | 821.5      | 921.43     | 1127.2     | 276.5 | 29.89
Neigh   | 594.14     | 688.35     | 955.45     | 378.6 | 22.33
Comm    | 357.71     | 415.44     | 500.03     | 225.8 | 13.47
Output  | 6.0664     | 6.0667     | 6.0678     |   0.0 |  0.20
Modify  | 502.52     | 1038.1     | 1248.5     | 649.4 | 33.67
Other   |            | 13.81      |            |       |  0.45

Nlocal:        10123.6 ave       15946 max        8637 min
Histogram: 9 3 1 0 1 1 0 0 0 1
Nghost:        7779.31 ave       10278 max        6888 min
Histogram: 6 3 2 0 2 1 0 1 0 1
Neighs:         102841 ave      119352 max       92530 min
Histogram: 2 3 1 4 2 1 0 1 1 1

Total # of neighbors = 1645458
Ave neighs/atom = 10.158528
Neighbor list builds = 28045
Dangerous builds = 27725

Total wall time: 0:51:47
