LAMMPS (23 Jun 2022 - Update 4)
  using 1 OpenMP thread(s) per MPI task
package omp 0
using multi-threaded neighbor list subroutines
#-----------------------------------------------------------------------------#
#                NUFEB Simulation: Heterotrophic Biofilm Growth               #
#-----------------------------------------------------------------------------#


#-----------------------------System Settings---------------------------------#

units si                                    # using si units (m, s, kg)
atom_style      coccus                      # using nufeb coccus atom style
atom_modify     map array sort 10 0         # map array - find atoms using indices
		                            # sort every 10

boundary        pp pp ff                    # periodic boundaries in x and y
                                            # fixed boundary in z

newton          off                         # forces between local and ghost
                                            # atoms are computed in each
					     # processor without communication

processors      * * 1                       # processor grid

comm_modify     vel yes                     # communicate velocities for ghost atoms

read_data       atom_ch.in	             # read atom.in file which defines domain size
Reading data file ...
  orthogonal box = (0 0 0) to (6e-05 6e-05 6e-05)
  4 by 4 by 1 MPI processor grid
  reading atoms ...
  150 atoms
  read_data CPU = 0.012 seconds
                                            # and initial atoms


#--------------------Microbes and Functional Groups-------------------------#

group           CROSS1   type 1               # assign type 1,2 atoms to CROSS group
50 atoms in group CROSS1
group           CROSS2   type 2
50 atoms in group CROSS2
group		CHEATER  type 3
50 atoms in group CHEATER
group           dead     type 4
0 atoms in group dead
group		EPS	 type 5
0 atoms in group EPS

neighbor        5e-7 bin                   # setting neighbour skin distance and style

neigh_modify    check yes                  # rebuild neighbour list if any atom
                                           # had moved more than half the skin distance


#--------------------------Mesh Grid and Substrates--------------------------#

# defining grid sytle, substrate names, and grid size
grid_style      nufeb/chemostat 3 sub metab1 metab2 5e-6

# set diffusion boundary conditions and initial concentrations (liquid:kg/m3)
grid_modify     set sub      pp pp nd  1.8e-4
No /omp style for force computation currently active
grid_modify     set metab1   pp pp nd  1e-4
No /omp style for force computation currently active
grid_modify     set metab2   pp pp nd  1e-4
No /omp style for force computation currently active


#--------------------------Biological Processes-------------------------------#

# heterotrophs growth
fix growth_cross1 CROSS1 nufeb/growth/cross1 sub 3.5e-5 metab2 4e-3 metab1 growth 0.009 yield 0.6 decay 2.6e-6 metab1_exp 20 epsyield 0.12 epsdens 30

fix growth_cross2 CROSS2 nufeb/growth/cross2 sub 3.5e-5 metab1 4e-3 metab2 growth 0.009 yield 0.6 decay 2.6e-6 metab2_exp 20 epsyield 0.12 epsdens 30

fix growth_cheater CHEATER nufeb/growth/cheater sub 3.5e-5 metab1 1e-3 metab2 1e-3 growth 0.009 yield 0.6 decay 2.6e-6

# heterotrophs division, division diameter: 1.36e-6
fix div1 CROSS1 nufeb/division/coccus 1.36e-6 1003
fix div2 CROSS2 nufeb/division/coccus 1.36e-6 3706
fix div3 CHEATER nufeb/division/coccus 1.36e-6 8209

fix death1 CROSS1 nufeb/death/diameter dead 5.43e-7
fix death2 CROSS2 nufeb/death/diameter dead 5.43e-7
fix death3 CHEATER nufeb/death/diameter dead 5.43e-7

# EPS secretion from heterotrophs
fix eps1 CROSS1 nufeb/eps_secretion 5 EPS 1.1 30 14512
fix eps2 CROSS2 nufeb/eps_secretion 5 EPS 1.1 30 22615

#---------------------------Physical Processes--------------------------------#

pair_style  gran/hooke/history 1e-4 NULL 1e-5 NULL 0.0 0    # pairwise interaction
pair_coeff  * *                                             # between atoms

# pairwise interaction between z-wall and atoms
fix wall all wall/gran hooke/history 1e-3 NULL 1e-4 NULL 0 0 zplane 0.0 1e-04

fix vis all viscous 1e-5                                    # viscous damping force

fix grav all gravity 9.81 vector 0.0 0.0 -1.0

fix nve all nve/limit 1e-7                                  # NVE integration with
                                                            # maximum distance limit


#---------------------------Post-Physical Processes---------------------------#

fix coeff_sub all nufeb/diffusion_coeff sub ratio 0.8       # defining diffusion coeff in the biofilm
fix coeff_metab1 all nufeb/diffusion_coeff metab1 ratio 0.8    # region is 80% of the value in liquid
fix coeff_metab2 all nufeb/diffusion_coeff metab2 ratio 0.8

#---------------------------Chemical Processes---------------------------------#

fix diff_sub all nufeb/diffusion_reaction sub 1e-9        # diffusion reaction for updating
fix diff_metab1 all nufeb/diffusion_reaction metab1 4e-9     # distribusion of substrate concentration
fix diff_metab2 all nufeb/diffusion_reaction metab2 4e-9

#--------------------------Computations and Outputs----------------------------#

variable mass equal "mass(all)"                             # total mass
variable ncross1 equal "count(CROSS1)"                      # total # of CROSS1
variable ncross2 equal "count(CROSS2)"                      # total # of CROSS2
variable ncheater equal "count(CHEATER)"
variable ndead equal "count(dead)"
variable neps equal "count(EPS)"

shell mkdir vtk_EPS_ch                                            # dump vtk files to /vtk folder
dump du1 all vtk 10 vtk_EPS_ch/dump*.vtu id type diameter         # require build NUFEB with vtk option
dump du2 all grid/vtk 10 vtk_EPS_ch/dump_%_*.vti con rea den gro

#dump du3 all movie 10 movie.avi type diameter view 80 60    # dump video
#dump_modify du3 acolor 1 blue acolor 2 lightgrey framerate 10


                                                            # dump hdf5 files to /hdf5 folder
#shell mkdir hdf5                                           # require build NUFEB with hdf5 option
#dump du3 all nufeb/hdf5 10 dump.h5 id type x y z vx vy vz fx fy fz radius conc reac

thermo_style custom step cpu atoms v_ncross1 v_ncross2 v_ncheater v_ndead v_neps v_mass     # screen and log outputs
thermo 1
thermo_modify   lost ignore

#-----------------------------------Run----------------------------------------#

# issue run command, define timesteps for physical (pairdt) and chemical (diffdt) processes
run_style nufeb diffdt 1e-4 difftol 1e-6 pairdt 1e-2 pairtol 1 pairmax 1000 diffmax 5000

timestep 12000                                               # define biological timesteps (1000s)

run 320                                                    # growing biofilm for 900x1000s
Generated 0 of 6 mixed pair_coeff terms from geometric mixing rule
Last active /omp style is pair_style gran/hooke/history/omp
Neighbor list info ...
  update every 1 steps, delay 10 steps, check yes
  max neighbors/atom: 2000, page size: 100000
  master list distance cutoff = 2.49e-06
  ghost atom cutoff = 2.49e-06
  binsize = 1.245e-06, bins = 49 49 49
  1 neighbor lists, perpetual/occasional/extra = 1 0 0
  (1) pair gran/hooke/history/omp, perpetual
      attributes: half, newton off, size, history, omp
      pair build: half/size/bin/newtoff/omp
      stencil: full/bin/3d
      bin: standard
Per MPI rank memory allocation (min/avg/max) = 11.02 | 11.02 | 11.02 Mbytes
   Step          CPU          Atoms      v_ncross1      v_ncross2      v_ncheater      v_ndead         v_neps         v_mass    
         0   0                    150   50             50             50             0              0              1.3295396e-13
         1   0.37769048           432   90             85             86             0              171            1.7273297e-13
         2   0.7516685            792   120            126            135            0              411            1.9531977e-13
         3   1.0854574           1119   128            144            176            0              671            2.1450453e-13
         4   1.3811332           1418   136            151            195            0              936            2.3261547e-13
         5   1.6347605           1756   142            164            220            0              1230           2.5018039e-13
         6   1.8042528           2077   146            172            233            0              1526           2.6723562e-13
         7   1.9859083           2404   152            178            248            0              1826           2.8398952e-13
         8   2.1241633           2765   163            188            269            0              2145           3.0040472e-13
         9   2.2506999           3139   172            197            291            0              2479           3.1663912e-13
        10   2.4114092           3510   177            206            309            0              2818           3.3255832e-13
        11   2.5421985           3888   177            212            329            0              3170           3.4825765e-13
        12   2.660396            4266   185            218            344            0              3519           3.6352299e-13
        13   2.7812991           4649   189            224            365            0              3871           3.7837651e-13
        14   2.8836531           5031   192            228            379            0              4232           3.9289026e-13
        15   2.9757695           5428   199            232            397            0              4600           4.070016e-13 
        16   3.0855382           5808   203            237            411            0              4957           4.2061745e-13
        17   3.2007036           6204   207            241            431            0              5325           4.3384305e-13
        18   3.3146854           6588   211            244            447            0              5686           4.4665679e-13
        19   3.42643             6981   218            248            462            0              6053           4.5903863e-13
        20   13.294709           7371   220            252            480            0              6419           4.7072327e-13
        21   13.376583           7775   223            258            493            0              6801           4.8214744e-13
        22   13.449329           8150   228            264            507            0              7151           4.9292263e-13
        23   13.530264           8549   231            266            520            0              7532           5.0367116e-13
        24   13.616036           8941   232            271            534            0              7904           5.1410878e-13
        25   13.720299           9342   236            277            550            0              8279           5.2400625e-13
        26   13.796702           9738   239            283            561            0              8655           5.3315943e-13
        27   13.875599          10136   242            286            573            0              9035           5.4220918e-13
        28   13.973171          10539   246            289            587            0              9417           5.5098579e-13
        29   14.061703          10915   251            290            597            0              9777           5.5929795e-13
        30   14.187259          11318   253            294            610            0              10161          5.6730634e-13
        31   14.317549          11703   255            297            620            0              10531          5.7469356e-13
        32   14.435002          12092   258            303            626            0              10905          5.8166235e-13
        33   14.551655          12485   260            304            636            0              11285          5.883742e-13 
        34   14.664675          12899   267            307            641            0              11684          5.9472069e-13
        35   14.772332          13281   270            309            646            0              12056          6.0070127e-13
        36   14.936745          13682   274            313            653            0              12442          6.0675541e-13
        37   15.160838          14107   279            315            664            0              12849          6.1246073e-13
        38   15.486985          14493   284            316            673            0              13220          6.1760824e-13
        39   15.768965          14898   287            316            680            0              13615          6.2245973e-13
        40   17.370007          15298   289            318            687            0              14004          6.2707885e-13
        41   17.833944          15704   292            319            692            0              14401          6.3160382e-13
        42   18.406823          16095   293            324            696            0              14782          6.3581651e-13
        43   19.02576           16494   297            328            699            0              15170          6.401578e-13 
        44   19.922994          16910   301            331            702            0              15576          6.4406335e-13
        45   20.828175          17326   306            333            708            0              15979          6.4768019e-13
        46   21.790109          17740   308            334            709            0              16389          6.5134703e-13
        47   22.766774          18150   312            336            714            0              16788          6.5441515e-13
        48   23.782988          18557   317            337            717            0              17186          6.5744845e-13
        49   24.771515          18967   319            338            720            0              17590          6.6022022e-13
        50   25.833224          19380   322            340            725            0              17993          6.6302313e-13
        51   26.94455           19806   325            342            730            0              18409          6.6594135e-13
        52   27.997753          20223   328            346            731            0              18818          6.688949e-13 
        53   29.065786          20634   330            347            736            0              19221          6.7197197e-13
        54   30.17239           21067   332            349            740            0              19646          6.7513926e-13
        55   31.303663          21489   335            354            746            0              20054          6.7840168e-13
        56   32.452114          21912   338            355            752            0              20467          6.8180736e-13
        57   33.624854          22354   340            360            763            0              20891          6.8544939e-13
        58   34.820617          22769   343            361            769            0              21296          6.8903527e-13
        59   36.05777           23204   345            363            776            0              21720          6.9285748e-13
        60   37.398194          23621   347            363            778            2              22131          6.9655742e-13
        61   38.70138           24059   351            364            783            2              22559          7.0047189e-13
        62   40.038723          24502   353            366            793            3              22987          7.0456893e-13
        63   41.404263          24935   355            368            801            6              23405          7.0877925e-13
        64   42.797915          25374   356            369            808            9              23832          7.1306863e-13
        65   44.20104           25797   357            371            816            11             24242          7.1765818e-13
        66   45.630397          26234   360            373            826            12             24663          7.2214656e-13
        67   47.116932          26684   361            375            835            12             25101          7.2681586e-13
        68   48.621822          27116   363            376            847            14             25516          7.3168214e-13
        69   50.163184          27566   363            377            859            16             25951          7.3693972e-13
        70   51.795961          28002   365            379            870            16             26372          7.4213861e-13
        71   53.393008          28445   369            380            882            19             26795          7.4715519e-13
        72   55.004409          28893   371            380            892            21             27229          7.524513e-13 
        73   56.64013           29327   372            383            898            23             27651          7.5768236e-13
        74   58.317874          29778   372            387            918            25             28076          7.6301777e-13
        75   60.008848          30217   373            387            929            29             28499          7.6819591e-13
        76   61.742762          30659   375            389            937            31             28927          7.7337329e-13
        77   63.500377          31103   375            391            946            35             29356          7.785482e-13 
        78   65.286016          31547   377            392            958            38             29782          7.8351034e-13
        79   67.120769          31998   379            393            966            45             30215          7.8861933e-13
        80   69.081275          32440   381            393            976            50             30640          7.9361174e-13
        81   70.986013          32887   381            393            983            55             31075          7.9881522e-13
        82   72.972039          33319   383            396            990            61             31489          8.0398447e-13
        83   74.996096          33771   385            398            1001           67             31920          8.0951237e-13
        84   77.045349          34210   386            398            1011           70             32345          8.151375e-13 
        85   79.13673           34655   386            398            1016           78             32777          8.2105947e-13
        86   81.286518          35098   388            398            1026           85             33201          8.2715184e-13
        87   83.476184          35557   389            398            1033           96             33641          8.3370196e-13
        88   85.707639          35989   389            398            1047           104            34051          8.4047754e-13
        89   87.99294           36442   391            400            1068           108            34475          8.4771695e-13
        90   90.482211          36898   392            400            1087           116            34903          8.5546548e-13
        91   92.947328          37324   392            400            1092           128            35312          8.640107e-13 
        92   95.398662          37757   392            401            1118           130            35716          8.7385505e-13
        93   97.881898          38215   393            401            1143           135            36143          8.842101e-13 
        94   100.3607           38632   393            403            1157           144            36535          8.9520012e-13
        95   102.99139          39093   393            405            1190           149            36956          9.0668922e-13
        96   105.5955           39510   395            406            1208           158            37343          9.1941316e-13
        97   108.24167          39966   395            407            1245           162            37757          9.3264815e-13
        98   110.95405          40401   395            407            1284           170            38145          9.4603786e-13
        99   113.64191          40850   396            408            1321           177            38548          9.6014606e-13
       100   116.5083           41276   396            408            1348           192            38932          9.7439862e-13
       101   119.36006          41721   396            408            1388           204            39325          9.8899274e-13
       102   122.19629          42141   397            411            1422           218            39693          1.0035925e-12
       103   125.10013          42576   397            412            1453           228            40086          1.0184788e-12
       104   128.04163          43004   399            413            1497           237            40458          1.0333905e-12
       105   131.05962          43435   399            414            1529           251            40842          1.0487458e-12
       106   134.05905          43855   399            415            1562           267            41212          1.0639658e-12
       107   137.18528          44276   402            417            1601           281            41575          1.0793567e-12
       108   140.35834          44671   402            418            1627           303            41921          1.0947173e-12
       109   143.50758          45103   402            418            1669           318            42296          1.1102777e-12
       110   146.84232          45502   405            418            1697           331            42651          1.1258834e-12
       111   150.15642          45897   406            419            1735           349            42988          1.14121e-12  
       112   153.493            46302   408            420            1778           358            43338          1.1570177e-12
       113   156.84511          46687   409            421            1813           368            43676          1.1732925e-12
       114   160.24537          47119   410            425            1871           383            44030          1.1894123e-12
       115   163.66323          47516   411            427            1899           398            44381          1.2052686e-12
       116   167.21155          47903   412            430            1946           411            44704          1.221073e-12 
       117   170.76899          48302   414            432            1985           419            45052          1.237253e-12 
       118   174.41792          48742   415            435            2043           433            45416          1.253154e-12 
       119   178.07654          49137   417            437            2086           445            45752          1.2690886e-12
       120   182.02081          49553   417            438            2137           455            46106          1.2851421e-12
       121   185.8429           49946   417            438            2190           461            46440          1.3017975e-12
       122   189.77122          50365   418            438            2246           465            46798          1.3183373e-12
       123   193.76772          50769   421            439            2290           476            47143          1.3348795e-12
       124   197.83338          51161   421            442            2344           487            47467          1.3521305e-12
       125   201.95548          51593   424            448            2399           504            47818          1.3699479e-12
       126   206.11576          51995   424            448            2441           518            48164          1.3880704e-12
       127   210.31774          52410   425            451            2507           527            48500          1.406061e-12 
       128   214.5833           52837   427            451            2575           537            48847          1.4247552e-12
       129   218.85113          53240   429            451            2632           548            49180          1.4428369e-12
       130   223.27845          53656   429            451            2696           565            49515          1.4604697e-12
       131   227.65842          54069   432            453            2748           581            49855          1.4771579e-12
       132   232.09041          54456   433            454            2794           599            50176          1.4933751e-12
       133   236.59587          54882   436            454            2859           610            50523          1.5092942e-12
       134   241.18534          55296   437            455            2913           627            50864          1.5246706e-12
       135   245.83779          55721   438            455            2955           647            51226          1.5400909e-12
       136   250.62011          56133   438            455            3003           659            51578          1.5552014e-12
       137   255.47738          56543   439            458            3058           667            51921          1.5707584e-12
       138   260.43509          56983   440            458            3127           684            52274          1.5865225e-12
       139   265.43817          57404   441            458            3195           700            52610          1.6029809e-12
       140   270.64626          57845   441            458            3258           723            52965          1.619906e-12 
       141   275.81923          58309   443            458            3323           739            53346          1.6373792e-12
       142   281.0669           58769   443            458            3409           756            53703          1.6553921e-12
       143   286.32626          59176   443            458            3456           784            54035          1.6736073e-12
       144   291.68393          59635   443            458            3519           801            54414          1.691693e-12 
       145   297.09756          60061   444            458            3582           826            54751          1.7096409e-12
       146   302.59443          60538   444            458            3634           860            55142          1.7278985e-12
       147   308.23819          60998   445            459            3719           879            55496          1.7459254e-12
       148   313.91672          61467   446            459            3793           901            55868          1.7644447e-12
       149   319.68847          61900   446            459            3853           924            56218          1.7833916e-12
       150   325.69732          62355   446            459            3909           957            56584          1.8028217e-12
       151   331.65248          62803   446            460            3975           981            56941          1.8227987e-12
       152   337.69307          63267   446            461            4034           1013           57313          1.8441498e-12
       153   343.81833          63720   446            461            4109           1045           57659          1.866429e-12 
       154   350.00328          64199   446            461            4185           1072           58035          1.8895606e-12
       155   356.27018          64673   446            461            4268           1100           58398          1.913596e-12 
       156   362.56934          65135   446            461            4363           1120           58745          1.9382916e-12
       157   368.92366          65597   446            461            4452           1143           59095          1.9633059e-12
       158   375.36866          66070   446            461            4558           1162           59443          1.9884535e-12
       159   381.897            66546   446            461            4659           1177           59803          2.0137657e-12
       160   388.68389          67029   446            461            4772           1193           60157          2.0391117e-12
       161   395.42519          67439   446            461            4870           1206           60456          2.0645363e-12
       162   402.25016          67934   446            461            4952           1230           60845          2.0905136e-12
       163   409.18905          68392   446            461            5044           1267           61174          2.1164208e-12
       164   416.21168          68878   445            461            5140           1303           61529          2.1427172e-12
       165   423.31056          69339   445            461            5236           1337           61860          2.1693747e-12
       166   430.53334          69813   445            461            5299           1385           62223          2.1961992e-12
       167   437.85188          70280   445            461            5409           1426           62539          2.2242848e-12
       168   445.21266          70768   445            461            5489           1475           62898          2.2533674e-12
       169   452.66435          71206   445            461            5568           1520           63212          2.2825843e-12
       170   460.39295          71697   445            460            5661           1571           63560          2.3121634e-12
       171   468.01908          72182   445            460            5762           1617           63898          2.3421571e-12
       172   475.79342          72644   445            460            5866           1652           64221          2.3721428e-12
       173   483.59756          73067   445            460            5924           1704           64534          2.4021748e-12
       174   491.51144          73559   444            460            6031           1757           64867          2.4326759e-12
       175   499.50681          74054   444            461            6133           1809           65207          2.4639026e-12
       176   507.59449          74501   444            461            6225           1852           65519          2.4955294e-12
       177   515.75948          74964   444            459            6330           1890           65841          2.5279608e-12
       178   524.02315          75439   442            459            6430           1939           66169          2.560666e-12 
       179   532.42095          75915   441            458            6561           1986           66469          2.5943103e-12
       180   541.08387          76417   441            457            6669           2039           66811          2.6288396e-12
       181   549.65934          76861   441            454            6769           2099           67098          2.6636268e-12
       182   558.33109          77317   440            453            6880           2144           67400          2.6989813e-12
       183   567.08797          77809   440            452            6980           2215           67722          2.7345278e-12
       184   575.94621          78276   440            450            7081           2273           68032          2.7707229e-12
       185   584.89035          78711   440            450            7186           2311           68324          2.8074475e-12
       186   593.91714          79215   440            449            7324           2360           68642          2.8445223e-12
       187   603.05593          79697   440            448            7470           2401           68938          2.882868e-12 
       188   612.29093          80185   440            448            7601           2450           69246          2.9223073e-12
       189   621.60407          80659   440            447            7753           2492           69527          2.9623219e-12
       190   631.21778          81139   440            447            7884           2538           69830          3.0029383e-12
       191   640.79892          81631   440            446            8026           2591           70128          3.043748e-12 
       192   650.45941          82110   440            446            8178           2628           70418          3.085772e-12 
       193   660.21461          82596   438            444            8321           2678           70715          3.1282948e-12
       194   670.06131          83079   437            444            8459           2743           70996          3.1708002e-12
       195   679.98735          83542   436            444            8592           2802           71268          3.214576e-12 
       196   690.00944          84061   435            443            8754           2847           71582          3.2600132e-12
       197   700.10299          84538   434            442            8902           2908           71852          3.3061161e-12
       198   710.30741          85039   433            440            9059           2975           72132          3.3536286e-12
       199   720.61813          85574   433            437            9241           3034           72429          3.4025741e-12
       200   731.22486          86059   432            435            9389           3092           72711          3.4535917e-12
       201   741.72534          86536   431            434            9574           3146           72951          3.5057006e-12
       202   752.3713           87080   430            433            9739           3220           73258          3.5592059e-12
       203   763.11108          87599   430            432            9911           3287           73539          3.6136325e-12
       204   773.95672          88102   430            432            10107          3345           73788          3.6692809e-12
       205   784.93851          88672   429            431            10318          3409           74085          3.726389e-12 
       206   796.00061          89171   426            431            10487          3476           74351          3.7846778e-12
       207   807.14716          89690   426            431            10649          3563           74621          3.8446397e-12
       208   818.41306          90250   426            430            10875          3633           74886          3.9080344e-12
       209   829.76136          90793   426            429            11080          3708           75150          3.9752576e-12
       210   841.44761          91366   426            428            11313          3778           75421          4.0470144e-12
       211   853.00904          91922   425            427            11532          3857           75681          4.1216833e-12
       212   864.67382          92506   424            423            11770          3945           75944          4.1992632e-12
       213   876.42884          93056   422            421            11981          4032           76200          4.280897e-12 
       214   888.31329          93677   421            419            12259          4111           76467          4.3652201e-12
       215   900.32435          94257   419            413            12534          4197           76694          4.45175e-12  
       216   912.46274          94892   418            411            12831          4278           76954          4.543451e-12 
       217   924.71484          95525   416            410            13123          4368           77208          4.6427697e-12
       218   937.06472          96157   415            409            13447          4450           77436          4.7497836e-12
       219   949.59243          96865   413            408            13814          4545           77685          4.8686549e-12
       220   962.48509          97579   410            405            14194          4636           77934          4.9980909e-12
       221   975.26165          98333   408            404            14619          4733           78169          5.1391088e-12
       222   988.22197          99074   408            402            15033          4838           78393          5.2913853e-12
       223   1001.2966          99834   404            397            15445          4960           78628          5.4519527e-12
       224   1014.5362         100683   404            396            15946          5063           78874          5.6160542e-12
       225   1028.0285         101517   403            393            16471          5168           79082          5.783892e-12 
       226   1041.7001         102349   401            389            16993          5255           79311          5.9612588e-12
       227   1055.5638         103205   401            387            17522          5365           79530          6.1485887e-12
       228   1069.6943         104146   401            384            18123          5484           79754          6.3457469e-12
       229   1084.0001         105018   398            377            18685          5594           79964          6.5451101e-12
       230   1098.7086         105925   395            376            19273          5708           80173          6.7603769e-12
       231   1113.3544         106897   391            369            19931          5825           80381          6.9774736e-12
       232   1128.2935         107909   386            367            20634          5928           80594          7.2040072e-12
       233   1143.3567         108874   386            362            21286          6052           80788          7.4287103e-12
       234   1158.6318         109787   385            358            21899          6155           80990          7.6300331e-12
       235   1173.9917         110795   380            357            22593          6265           81200          7.86072e-12  
       236   1189.5538         111726   378            355            23232          6382           81379          8.0680965e-12
       237   1205.1894         112765   373            352            23966          6514           81560          8.3030257e-12
       238   1220.9278         113760   371            351            24673          6635           81730          8.5358424e-12
       239   1236.8059         114794   369            349            25398          6778           81900          8.765805e-12 
       240   1253.0258         115813   366            342            26112          6922           82071          8.9945215e-12
       241   1269.1999         116854   364            338            26843          7079           82230          9.2313731e-12
       242   1285.3568         117914   363            330            27630          7204           82387          9.4603205e-12
       243   1301.5456         118888   357            327            28338          7361           82505          9.6718811e-12
       244   1317.8037         119979   351            323            29158          7506           82641          9.8884775e-12
       245   1334.1411         120960   349            316            29876          7650           82769          1.0117567e-11
       246   1350.6485         121926   344            313            30554          7826           82889          1.0324693e-11
       247   1367.3059         123017   339            306            31361          8009           83002          1.0548191e-11
       248   1383.8393         123905   329            299            31996          8199           83082          1.0746748e-11
       249   1400.4718         124954   325            296            32758          8408           83167          1.0941417e-11
       250   1417.4694         125819   321            288            33343          8609           83258          1.1111457e-11
       251   1434.3044         126832   313            283            34052          8836           83348          1.1302432e-11
       252   1451.1937         127661   310            275            34615          9050           83411          1.145519e-11 
       253   1468.1635         128554   301            266            35222          9288           83477          1.1600643e-11
       254   1485.1643         129374   297            261            35697          9585           83534          1.1736791e-11
       255   1502.2267         130197   290            254            36169          9888           83596          1.1868948e-11
       256   1519.3895         131034   283            244            36640          10224          83643          1.1998826e-11
       257   1536.6346         131765   275            238            36988          10590          83674          1.2118158e-11
       258   1553.9384         132543   268            231            37406          10924          83714          1.219134e-11 
       259   1571.3246         133195   262            224            37650          11298          83761          1.2276933e-11
       260   1589.169          133885   253            220            37908          11704          83800          1.2362426e-11
       261   1606.6848         134485   239            212            38059          12139          83836          1.2401182e-11
       262   1624.2708         135185   233            204            38330          12551          83867          1.2464993e-11
       263   1642.0694         135796   220            198            38505          12982          83891          1.2508754e-11
       264   1659.9101         136350   216            194            38650          13369          83921          1.2536974e-11
       265   1677.9731         136889   206            182            38750          13798          83953          1.2530189e-11
       266   1696.0232         137390   194            173            38837          14200          83986          1.2552542e-11
       267   1714.1662         137923   187            169            38968          14578          84021          1.2563224e-11
       268   1732.3481         138380   177            160            39071          14923          84049          1.255186e-11 
       269   1750.583          138877   169            149            39200          15282          84077          1.2560259e-11
       270   1769.1497         139431   160            140            39410          15609          84112          1.2561901e-11
       271   1787.5943         139882   155            131            39606          15856          84134          1.2557432e-11
       272   1805.9822         140365   142            125            39795          16144          84159          1.2562644e-11
       273   1824.3886         140760   131            115            39861          16470          84183          1.2542649e-11
       274   1842.8891         141271   121            106            40064          16776          84204          1.2527024e-11
       275   1861.4631         141670   108            93             40154          17083          84232          1.251441e-11 
       276   1880.0566         142088   100            83             40296          17354          84255          1.250122e-11 
       277   1898.779          142537   91             78             40410          17675          84283          1.2487663e-11
       278   1917.5208         142957   87             72             40505          17982          84311          1.248508e-11 
       279   1936.2756         143391   80             68             40620          18287          84336          1.2470493e-11
       280   1955.465          143781   73             63             40676          18612          84357          1.2451982e-11
       281   1974.3971         144236   68             58             40758          18972          84380          1.2456761e-11
       282   1993.2958         144658   63             53             40829          19309          84404          1.2446076e-11
       283   2012.3454         145025   58             48             40831          19658          84430          1.2411332e-11
       284   2031.2826         145486   51             47             40942          19993          84453          1.2407114e-11
       285   2050.3564         145902   49             44             40938          20388          84483          1.2396743e-11
       286   2069.4369         146237   48             43             40918          20727          84501          1.2375858e-11
       287   2088.5662         146682   45             40             40975          21093          84529          1.2385509e-11
       288   2107.7509         147121   43             39             41020          21464          84555          1.2386371e-11
       289   2127.0589         147502   39             37             41027          21817          84582          1.2354356e-11
       290   2146.7107         147916   37             34             41109          22132          84604          1.2368065e-11
       291   2166.1322         148303   35             32             41138          22471          84627          1.2358267e-11
       292   2185.6566         148666   32             32             41154          22795          84653          1.2350601e-11
       293   2205.2182         149112   32             32             41235          23138          84675          1.2356782e-11
       294   2224.7923         149468   30             32             41223          23481          84702          1.2336503e-11
       295   2244.4557         149848   30             32             41193          23865          84728          1.2313744e-11
       296   2264.2313         150261   30             30             41289          24164          84748          1.2324258e-11
       297   2284.0339         150591   29             29             41230          24525          84778          1.2309105e-11
       298   2303.9036         150991   28             26             41278          24861          84798          1.2302255e-11
       299   2323.8073         151388   27             25             41306          25206          84824          1.2320597e-11
       300   2344.1641         151746   26             24             41299          25549          84848          1.2289724e-11
       301   2364.2853         152106   25             22             41261          25924          84874          1.2286457e-11
       302   2384.453          152519   24             22             41301          26280          84892          1.2285153e-11
       303   2404.6813         152934   24             22             41271          26697          84920          1.2316548e-11
       304   2424.9304         153300   24             22             41205          27112          84937          1.2308858e-11
       305   2445.2656         153658   23             22             41128          27520          84965          1.2288297e-11
       306   2465.6428         153936   23             22             40951          27958          84982          1.2280442e-11
       307   2486.0863         154347   23             22             40842          28450          85010          1.2302079e-11
       308   2506.5987         154686   23             22             40726          28883          85032          1.2312331e-11
       309   2527.1933         155096   23             22             40631          29364          85056          1.2291705e-11
       310   2548.2429         155440   22             22             40491          29826          85079          1.2284175e-11
       311   2569.0813         155810   22             21             40359          30307          85101          1.2304155e-11
       312   2589.9327         156130   22             19             40192          30774          85123          1.2301523e-11
       313   2610.8288         156417   22             19             39979          31253          85144          1.2283156e-11
       314   2631.8097         156815   22             19             39840          31769          85165          1.2287168e-11
       315   2652.8429         157206   22             19             39721          32257          85187          1.2296801e-11
       316   2673.7385         157605   22             19             39596          32758          85210          1.2319135e-11
       317   2694.8324         157882   22             19             39303          33308          85230          1.230259e-11 
       318   2716.0013         158188   22             19             39029          33865          85253          1.230675e-11 
       319   2737.0797         158542   22             19             38856          34370          85275          1.2314275e-11
       320   2758.5915         158994   22             19             38812          34840          85301          1.2336675e-11
Loop time of 2758.59 on 16 procs for 320 steps with 158994 atoms

97.4% CPU use with 16 MPI tasks x 1 OpenMP threads

MPI task timing breakdown:
Section |  min time  |  avg time  |  max time  |%varavg| %total
---------------------------------------------------------------
Pair    | 761.43     | 858.46     | 974.87     | 229.0 | 31.12
Neigh   | 548.1      | 643.43     | 774        | 305.5 | 23.32
Comm    | 397.2      | 421        | 464.46     |  93.0 | 15.26
Output  | 16.606     | 16.606     | 16.607     |   0.0 |  0.60
Modify  | 556.51     | 804.61     | 993.14     | 535.7 | 29.17
Other   |            | 14.49      |            |       |  0.53

Nlocal:        9937.12 ave       13996 max        8138 min
Histogram: 5 3 1 3 1 0 0 1 1 1
Nghost:        7638.56 ave        9371 max        6256 min
Histogram: 2 2 2 3 0 1 2 2 1 1
Neighs:        95291.1 ave      103535 max       86762 min
Histogram: 2 2 3 0 1 0 1 4 1 2

Total # of neighbors = 1524658
Ave neighs/atom = 9.5894059
Neighbor list builds = 28124
Dangerous builds = 27804

Total wall time: 0:46:23
