LAMMPS (23 Jun 2022 - Update 4)
  using 1 OpenMP thread(s) per MPI task
package omp 0
using multi-threaded neighbor list subroutines
#-----------------------------------------------------------------------------#
#                NUFEB Simulation: Heterotrophic Biofilm Growth               #
#-----------------------------------------------------------------------------#


#-----------------------------System Settings---------------------------------#

units si                                    # using si units (m, s, kg)
atom_style      coccus                      # using nufeb coccus atom style
atom_modify     map array sort 10 0         # map array - find atoms using indices
		                            # sort every 10

boundary        pp pp ff                    # periodic boundaries in x and y
                                            # fixed boundary in z

newton          off                         # forces between local and ghost
                                            # atoms are computed in each
					     # processor without communication

processors      * * 1                       # processor grid

comm_modify     vel yes                     # communicate velocities for ghost atoms

read_data       atom_ch.in	             # read atom.in file which defines domain size
Reading data file ...
  orthogonal box = (0 0 0) to (6e-05 6e-05 6e-05)
  4 by 4 by 1 MPI processor grid
  reading atoms ...
  150 atoms
  read_data CPU = 0.009 seconds
                                            # and initial atoms


#--------------------Microbes and Functional Groups-------------------------#

group           CROSS1   type 1               # assign type 1,2 atoms to CROSS group
50 atoms in group CROSS1
group           CROSS2   type 2
50 atoms in group CROSS2
group		CHEATER  type 3
50 atoms in group CHEATER
group           dead     type 4
0 atoms in group dead
group		EPS	 type 5
0 atoms in group EPS

neighbor        5e-7 bin                   # setting neighbour skin distance and style

neigh_modify    check yes                  # rebuild neighbour list if any atom
                                           # had moved more than half the skin distance


#--------------------------Mesh Grid and Substrates--------------------------#

# defining grid sytle, substrate names, and grid size
grid_style      nufeb/chemostat 3 sub metab1 metab2 5e-6

# set diffusion boundary conditions and initial concentrations (liquid:kg/m3)
grid_modify     set sub      pp pp nd  1.8e-4
No /omp style for force computation currently active
grid_modify     set metab1   pp pp nd  1e-4
No /omp style for force computation currently active
grid_modify     set metab2   pp pp nd  1e-4
No /omp style for force computation currently active


#--------------------------Biological Processes-------------------------------#

# heterotrophs growth
fix growth_cross1 CROSS1 nufeb/growth/cross1 sub 3.5e-5 metab2 4e-3 metab1 growth 0.009 yield 0.6 decay 2.6e-6 metab1_exp 20 epsyield 0.12 epsdens 30

fix growth_cross2 CROSS2 nufeb/growth/cross2 sub 3.5e-5 metab1 4e-3 metab2 growth 0.009 yield 0.6 decay 2.6e-6 metab2_exp 20 epsyield 0.12 epsdens 30

fix growth_cheater CHEATER nufeb/growth/cheater sub 3.5e-5 metab1 1e-3 metab2 1e-3 growth 0.009 yield 0.6 decay 2.6e-6

# heterotrophs division, division diameter: 1.36e-6
fix div1 CROSS1 nufeb/division/coccus 1.36e-6 1127
fix div2 CROSS2 nufeb/division/coccus 1.36e-6 4202
fix div3 CHEATER nufeb/division/coccus 1.36e-6 9325

fix death1 CROSS1 nufeb/death/diameter dead 5.43e-7
fix death2 CROSS2 nufeb/death/diameter dead 5.43e-7
fix death3 CHEATER nufeb/death/diameter dead 5.43e-7

# EPS secretion from heterotrophs
fix eps1 CROSS1 nufeb/eps_secretion 5 EPS 1.1 30 16496
fix eps2 CROSS2 nufeb/eps_secretion 5 EPS 1.1 30 25715

#---------------------------Physical Processes--------------------------------#

pair_style  gran/hooke/history 1e-4 NULL 1e-5 NULL 0.0 0    # pairwise interaction
pair_coeff  * *                                             # between atoms

# pairwise interaction between z-wall and atoms
fix wall all wall/gran hooke/history 1e-3 NULL 1e-4 NULL 0 0 zplane 0.0 1e-04

fix vis all viscous 1e-5                                    # viscous damping force

fix grav all gravity 9.81 vector 0.0 0.0 -1.0

fix nve all nve/limit 1e-7                                  # NVE integration with
                                                            # maximum distance limit


#---------------------------Post-Physical Processes---------------------------#

fix coeff_sub all nufeb/diffusion_coeff sub ratio 0.8       # defining diffusion coeff in the biofilm
fix coeff_metab1 all nufeb/diffusion_coeff metab1 ratio 0.8    # region is 80% of the value in liquid
fix coeff_metab2 all nufeb/diffusion_coeff metab2 ratio 0.8

#---------------------------Chemical Processes---------------------------------#

fix diff_sub all nufeb/diffusion_reaction sub 1e-9        # diffusion reaction for updating
fix diff_metab1 all nufeb/diffusion_reaction metab1 4e-9     # distribusion of substrate concentration
fix diff_metab2 all nufeb/diffusion_reaction metab2 4e-9

#--------------------------Computations and Outputs----------------------------#

variable mass equal "mass(all)"                             # total mass
variable ncross1 equal "count(CROSS1)"                      # total # of CROSS1
variable ncross2 equal "count(CROSS2)"                      # total # of CROSS2
variable ncheater equal "count(CHEATER)"
variable ndead equal "count(dead)"
variable neps equal "count(EPS)"

shell mkdir vtk_EPS_ch                                            # dump vtk files to /vtk folder
dump du1 all vtk 10 vtk_EPS_ch/dump*.vtu id type diameter         # require build NUFEB with vtk option
dump du2 all grid/vtk 10 vtk_EPS_ch/dump_%_*.vti con rea den gro

#dump du3 all movie 10 movie.avi type diameter view 80 60    # dump video
#dump_modify du3 acolor 1 blue acolor 2 lightgrey framerate 10


                                                            # dump hdf5 files to /hdf5 folder
#shell mkdir hdf5                                           # require build NUFEB with hdf5 option
#dump du3 all nufeb/hdf5 10 dump.h5 id type x y z vx vy vz fx fy fz radius conc reac

thermo_style custom step cpu atoms v_ncross1 v_ncross2 v_ncheater v_ndead v_neps v_mass     # screen and log outputs
thermo 1
thermo_modify   lost ignore

#-----------------------------------Run----------------------------------------#

# issue run command, define timesteps for physical (pairdt) and chemical (diffdt) processes
run_style nufeb diffdt 1e-4 difftol 1e-6 pairdt 1e-2 pairtol 1 pairmax 1000 diffmax 5000

timestep 12000                                               # define biological timesteps (1000s)

run 320                                                    # growing biofilm for 900x1000s
Generated 0 of 6 mixed pair_coeff terms from geometric mixing rule
Last active /omp style is pair_style gran/hooke/history/omp
Neighbor list info ...
  update every 1 steps, delay 10 steps, check yes
  max neighbors/atom: 2000, page size: 100000
  master list distance cutoff = 2.49e-06
  ghost atom cutoff = 2.49e-06
  binsize = 1.245e-06, bins = 49 49 49
  1 neighbor lists, perpetual/occasional/extra = 1 0 0
  (1) pair gran/hooke/history/omp, perpetual
      attributes: half, newton off, size, history, omp
      pair build: half/size/bin/newtoff/omp
      stencil: full/bin/3d
      bin: standard
Per MPI rank memory allocation (min/avg/max) = 11.02 | 11.02 | 11.02 Mbytes
   Step          CPU          Atoms      v_ncross1      v_ncross2      v_ncheater      v_ndead         v_neps         v_mass    
         0   0                    150   50             50             50             0              0              1.3295396e-13
         1   0.39678835           432   90             85             86             0              171            1.7273415e-13
         2   0.78292467           793   122            125            135            0              411            1.9573604e-13
         3   1.1071957           1114   130            140            181            0              663            2.1525016e-13
         4   1.4246213           1438   140            151            202            0              945            2.3338835e-13
         5   1.6504532           1764   143            164            219            0              1238           2.5124821e-13
         6   1.8237243           2089   150            168            236            0              1535           2.6866596e-13
         7   1.9868445           2441   163            174            255            0              1849           2.8603739e-13
         8   2.1348439           2789   167            183            275            0              2164           3.0309501e-13
         9   2.2792689           3158   175            190            294            0              2499           3.1996034e-13
        10   8.5130621           3536   178            201            319            0              2838           3.3652704e-13
        11   8.6383364           3918   185            209            339            0              3185           3.5251235e-13
        12   8.7665845           4292   186            211            359            0              3536           3.6816642e-13
        13   8.8876327           4675   189            219            375            0              3892           3.8343825e-13
        14   8.9907949           5061   197            226            392            0              4246           3.9826456e-13
        15   9.1290265           5466   201            232            418            0              4615           4.1278516e-13
        16   9.2450642           5859   203            238            442            0              4976           4.2718464e-13
        17   9.335158            6259   208            244            464            0              5343           4.4088967e-13
        18   9.4395219           6655   211            247            481            0              5716           4.542556e-13 
        19   9.5348451           7033   216            252            496            0              6069           4.6717975e-13
        20   19.762285           7429   225            256            506            0              6442           4.7971385e-13
        21   19.852412           7858   231            261            521            0              6845           4.9190965e-13
        22   19.965348           8236   234            265            537            0              7200           5.0351818e-13
        23   20.062989           8611   236            267            551            0              7557           5.1469417e-13
        24   20.165446           9016   240            270            561            0              7945           5.2562484e-13
        25   20.253937           9431   245            278            576            0              8332           5.3629127e-13
        26   20.356371           9802   247            279            588            0              8688           5.4621965e-13
        27   20.443733          10200   251            282            605            0              9062           5.5593457e-13
        28   20.528811          10602   252            282            622            0              9446           5.6546484e-13
        29   20.615494          10993   255            284            631            0              9823           5.7435378e-13
        30   20.740645          11397   258            289            646            0              10204          5.8305372e-13
        31   20.848667          11801   265            293            662            0              10581          5.9145583e-13
        32   20.963538          12195   268            295            677            0              10955          5.9983709e-13
        33   21.104498          12591   272            298            685            0              11336          6.078723e-13 
        34   21.223421          12996   272            301            693            0              11730          6.1566849e-13
        35   21.420624          13391   274            304            700            0              12113          6.2317053e-13
        36   21.59509           13765   276            306            708            0              12475          6.299314e-13 
        37   21.83907           14182   277            307            720            0              12878          6.3647809e-13
        38   22.10758           14543   280            309            726            0              13228          6.4247859e-13
        39   22.516929          14962   285            313            731            0              13633          6.4867268e-13
        40   22.849103          15344   285            314            738            0              14007          6.5434946e-13
        41   23.390919          15756   294            318            744            0              14400          6.5966525e-13
        42   23.798402          16138   295            320            755            0              14768          6.6457395e-13
        43   24.639635          16540   298            320            761            0              15161          6.6942678e-13
        44   25.445721          16945   299            320            767            0              15559          6.7414247e-13
        45   26.317524          17346   302            322            775            0              15947          6.7855666e-13
        46   27.236837          17744   307            324            783            0              16330          6.8293971e-13
        47   28.19023           18150   307            327            784            0              16732          6.87169e-13  
        48   29.140265          18541   312            328            791            0              17110          6.9090599e-13
        49   30.118389          18959   316            329            796            0              17518          6.9462886e-13
        50   31.175918          19351   320            329            801            0              17901          6.9786242e-13
        51   32.178615          19756   321            331            807            0              18297          7.0119824e-13
        52   33.199051          20164   321            332            811            0              18700          7.0445343e-13
        53   34.24968           20563   324            334            817            0              19088          7.0759048e-13
        54   35.368242          20978   326            335            819            0              19498          7.1061739e-13
        55   36.465284          21374   330            337            822            0              19885          7.1353884e-13
        56   37.557933          21785   330            339            824            0              20292          7.1660754e-13
        57   38.682844          22191   331            341            827            0              20692          7.1983287e-13
        58   39.834564          22591   334            341            837            0              21079          7.2289621e-13
        59   41.000386          23014   334            344            840            1              21495          7.2592449e-13
        60   42.256337          23435   338            344            844            2              21907          7.288432e-13 
        61   43.484179          23836   339            346            849            2              22300          7.3166567e-13
        62   44.728292          24263   342            349            852            2              22718          7.3431358e-13
        63   46.006072          24672   343            350            857            3              23119          7.3692263e-13
        64   47.306031          25101   344            352            856            5              23544          7.3974871e-13
        65   48.610913          25507   347            355            859            6              23940          7.4261049e-13
        66   49.945301          25944   348            355            865            6              24370          7.4542359e-13
        67   51.32478           26338   348            358            868            7              24757          7.4815604e-13
        68   52.729946          26763   348            362            870            9              25174          7.5101052e-13
        69   54.166289          27194   351            363            873            12             25595          7.5389445e-13
        70   55.73937           27612   353            365            882            13             25999          7.5685369e-13
        71   57.24542           28038   357            365            888            16             26412          7.6036836e-13
        72   58.797627          28465   357            367            892            21             26828          7.6431244e-13
        73   60.410982          28889   358            370            902            24             27235          7.6796672e-13
        74   62.066292          29311   359            373            908            28             27643          7.7249774e-13
        75   63.756474          29756   361            377            918            32             28068          7.7750299e-13
        76   65.455202          30198   362            378            926            38             28494          7.8306009e-13
        77   67.234837          30617   362            378            936            43             28898          7.8882763e-13
        78   69.084115          31045   364            379            955            44             29303          7.952401e-13 
        79   70.942877          31492   366            379            966            52             29729          8.0276123e-13
        80   72.851726          31913   366            379            984            61             30123          8.1044205e-13
        81   74.802157          32346   366            382            996            68             30534          8.1838337e-13
        82   76.797091          32797   368            384            1023           72             30950          8.2713887e-13
        83   78.805644          33214   368            385            1044           81             31336          8.3651119e-13
        84   80.833878          33657   369            385            1064           83             31756          8.4646484e-13
        85   82.879749          34072   369            386            1091           87             32139          8.5672262e-13
        86   84.972461          34519   369            388            1122           92             32548          8.6744894e-13
        87   87.11014           34945   369            390            1153           98             32935          8.7849632e-13
        88   89.217112          35367   369            390            1182           105            33321          8.8993241e-13
        89   91.395295          35811   371            391            1208           115            33726          9.0149953e-13
        90   93.716796          36228   371            391            1231           123            34112          9.1315209e-13
        91   95.977826          36650   372            391            1261           131            34495          9.2512521e-13
        92   98.286818          37071   372            392            1293           133            34881          9.3716766e-13
        93   100.59088          37509   373            392            1333           137            35274          9.4950774e-13
        94   102.95241          37934   373            392            1381           141            35647          9.618723e-13 
        95   105.39848          38359   373            394            1403           149            36040          9.7480692e-13
        96   107.85629          38756   373            394            1432           155            36402          9.8806452e-13
        97   110.30513          39183   373            395            1471           159            36785          1.001936e-12 
        98   112.86266          39590   374            395            1504           163            37154          1.0158512e-12
        99   115.44405          40002   374            395            1544           170            37519          1.0303607e-12
       100   118.15494          40422   374            395            1584           177            37892          1.0452352e-12
       101   120.8354           40836   374            395            1624           182            38261          1.0605325e-12
       102   123.54947          41242   374            395            1680           186            38607          1.0758798e-12
       103   126.26367          41643   374            395            1717           195            38962          1.0918596e-12
       104   129.07932          42056   374            395            1757           203            39327          1.1080408e-12
       105   131.8741           42451   374            395            1808           208            39666          1.1246067e-12
       106   134.70352          42862   374            395            1854           215            40024          1.1412238e-12
       107   137.64425          43247   375            395            1891           222            40364          1.1578541e-12
       108   140.57958          43638   375            395            1934           229            40705          1.1746963e-12
       109   143.55599          44051   377            395            1981           237            41061          1.1915257e-12
       110   146.67016          44452   377            395            2036           250            41394          1.2084086e-12
       111   149.7635           44850   377            395            2093           256            41729          1.225153e-12 
       112   152.8675           45238   378            395            2133           269            42063          1.2423984e-12
       113   156.03499          45611   378            395            2184           277            42377          1.2592346e-12
       114   159.26006          46014   379            396            2233           287            42719          1.2767228e-12
       115   162.51312          46379   380            397            2273           298            43031          1.2942303e-12
       116   165.81591          46789   382            398            2333           306            43370          1.3117285e-12
       117   169.17243          47179   382            398            2394           318            43687          1.3290715e-12
       118   172.59977          47559   384            398            2449           336            43992          1.3466034e-12
       119   176.09784          47940   385            398            2498           350            44309          1.3642172e-12
       120   179.75121          48315   386            398            2538           361            44632          1.3820199e-12
       121   183.31917          48697   386            398            2597           374            44942          1.3999146e-12
       122   186.89669          49070   388            398            2652           391            45241          1.4174577e-12
       123   190.53172          49459   388            398            2708           399            45566          1.4347543e-12
       124   194.21176          49822   388            400            2749           424            45861          1.4514506e-12
       125   197.90699          50212   389            402            2785           449            46187          1.4683301e-12
       126   201.66603          50547   390            402            2824           469            46462          1.4841328e-12
       127   205.49205          50950   393            403            2885           483            46786          1.4997006e-12
       128   209.35073          51329   394            404            2928           508            47095          1.5150545e-12
       129   213.30279          51696   394            406            2972           528            47396          1.5298905e-12
       130   217.44648          52055   394            406            3016           547            47692          1.5448682e-12
       131   221.56195          52449   396            408            3047           574            48024          1.5598962e-12
       132   225.71535          52826   396            409            3103           595            48323          1.5748127e-12
       133   229.96043          53218   399            412            3159           612            48636          1.5890988e-12
       134   234.31779          53592   399            412            3207           638            48936          1.6037329e-12
       135   238.70073          53979   400            413            3266           654            49246          1.6190069e-12
       136   243.17144          54351   401            413            3306           679            49552          1.634863e-12 
       137   247.68886          54715   401            414            3360           692            49848          1.6518482e-12
       138   252.23024          55082   402            415            3415           710            50140          1.6690453e-12
       139   256.85323          55489   406            415            3477           725            50466          1.6861584e-12
       140   261.68146          55860   407            416            3541           742            50754          1.7031563e-12
       141   266.40107          56247   407            416            3611           757            51056          1.7204043e-12
       142   271.22012          56615   407            418            3658           776            51356          1.7376717e-12
       143   276.068            57033   408            418            3746           789            51672          1.7555616e-12
       144   281.01166          57416   408            418            3815           807            51968          1.7731397e-12
       145   286.00602          57804   408            418            3895           827            52256          1.7903848e-12
       146   291.07776          58183   409            419            3948           851            52556          1.8074302e-12
       147   296.17206          58592   409            421            4017           869            52876          1.8244717e-12
       148   301.41439          58986   412            422            4087           887            53178          1.8412649e-12
       149   306.71519          59399   412            424            4157           912            53494          1.8580341e-12
       150   312.24398          59792   413            424            4227           933            53795          1.8750507e-12
       151   317.68803          60200   414            424            4294           956            54112          1.8920368e-12
       152   323.20863          60621   414            424            4372           978            54433          1.9092162e-12
       153   328.81292          61002   414            425            4438           1001           54724          1.9261635e-12
       154   334.46512          61394   414            425            4504           1018           55033          1.9432354e-12
       155   340.22318          61790   414            426            4590           1039           55321          1.9601433e-12
       156   346.06963          62211   415            427            4657           1063           55649          1.9775147e-12
       157   352.01113          62621   415            427            4731           1084           55964          1.9950774e-12
       158   357.98013          63039   415            428            4804           1114           56278          2.0131804e-12
       159   364.04332          63452   415            429            4883           1138           56587          2.0312553e-12
       160   370.31458          63872   416            429            4950           1165           56912          2.0494896e-12
       161   376.58883          64302   416            429            5034           1183           57240          2.0676127e-12
       162   382.9372           64725   416            429            5122           1208           57550          2.0864487e-12
       163   389.3813           65159   416            429            5203           1231           57880          2.1056716e-12
       164   395.92629          65585   416            429            5289           1261           58190          2.1255704e-12
       165   402.52009          66032   416            429            5372           1298           58517          2.1457514e-12
       166   409.21549          66462   416            429            5442           1333           58842          2.166259e-12 
       167   415.98339          66912   416            429            5528           1380           59159          2.1874636e-12
       168   422.82876          67369   416            429            5614           1413           59497          2.2089513e-12
       169   429.78882          67804   416            429            5700           1449           59810          2.2303685e-12
       170   437.00363          68252   416            429            5801           1485           60121          2.2520639e-12
       171   444.12304          68723   416            429            5885           1525           60468          2.2740485e-12
       172   451.36689          69143   416            429            5959           1571           60768          2.2959692e-12
       173   458.61495          69591   416            429            6029           1612           61105          2.3180745e-12
       174   465.97704          70022   416            429            6123           1662           61392          2.3398114e-12
       175   473.47089          70489   416            429            6174           1713           61757          2.3617325e-12
       176   481.05599          70921   416            429            6261           1757           62058          2.3838675e-12
       177   488.73235          71385   415            429            6336           1816           62389          2.4066161e-12
       178   496.51531          71806   414            428            6405           1874           62685          2.4298615e-12
       179   504.41646          72268   414            428            6486           1927           63013          2.4545941e-12
       180   512.57837          72710   414            428            6571           1974           63323          2.4802677e-12
       181   520.67717          73137   414            428            6662           2018           63615          2.5062256e-12
       182   528.89295          73617   414            426            6730           2081           63966          2.5334698e-12
       183   537.16259          74060   414            426            6828           2130           64262          2.5607248e-12
       184   545.5265           74485   412            426            6908           2193           64546          2.5879961e-12
       185   553.96715          74953   411            424            7004           2244           64870          2.6153233e-12
       186   562.50331          75392   411            422            7075           2313           65171          2.6426273e-12
       187   571.16031          75847   411            421            7171           2379           65465          2.6702088e-12
       188   579.90696          76269   411            421            7250           2430           65757          2.6979071e-12
       189   588.75291          76739   411            419            7360           2485           66064          2.725591e-12 
       190   597.88765          77198   410            418            7456           2536           66378          2.7535317e-12
       191   606.95176          77617   409            416            7556           2591           66645          2.7814943e-12
       192   616.11093          78081   408            416            7667           2636           66954          2.8112067e-12
       193   625.33202          78531   407            414            7785           2695           67230          2.8416203e-12
       194   634.63543          78963   407            413            7874           2760           67509          2.8732678e-12
       195   644.02604          79439   407            410            7979           2829           67814          2.9057616e-12
       196   653.49089          79878   405            410            8090           2896           68077          2.9388915e-12
       197   663.05639          80316   405            410            8177           2967           68357          2.9724907e-12
       198   672.71879          80763   405            409            8255           3054           68640          3.0062639e-12
       199   682.51189          81227   404            408            8370           3123           68922          3.0399638e-12
       200   692.585            81691   404            407            8508           3176           69196          3.0737146e-12
       201   702.59372          82120   404            406            8611           3242           69457          3.1071409e-12
       202   712.6609           82590   404            405            8715           3312           69754          3.1411038e-12
       203   722.8017           83036   403            404            8828           3387           70014          3.1756067e-12
       204   733.04542          83492   402            402            8940           3456           70292          3.2107009e-12
       205   743.3817           83942   402            401            9058           3524           70557          3.2471373e-12
       206   753.82268          84389   402            400            9159           3600           70828          3.285264e-12 
       207   764.35094          84877   402            399            9302           3672           71102          3.3244311e-12
       208   774.96762          85338   402            398            9433           3747           71358          3.3648047e-12
       209   785.7177           85797   399            396            9557           3826           71619          3.4071783e-12
       210   796.8029           86265   396            395            9700           3896           71878          3.4507757e-12
       211   807.74147          86725   396            394            9840           3965           72130          3.4943563e-12
       212   818.72528          87204   396            393            9978           4051           72386          3.5382392e-12
       213   829.83602          87714   395            392            10122          4131           72674          3.5830351e-12
       214   841.07071          88164   394            391            10253          4220           72906          3.6285584e-12
       215   852.41415          88653   393            390            10384          4329           73157          3.6755215e-12
       216   863.88069          89151   391            387            10527          4417           73429          3.7235504e-12
       217   875.4789           89612   388            386            10666          4522           73650          3.773816e-12 
       218   887.20602          90142   387            385            10840          4601           73929          3.8269375e-12
       219   898.99635          90622   385            382            11018          4692           74145          3.882292e-12 
       220   911.12451          91130   385            382            11204          4772           74387          3.9398085e-12
       221   923.14261          91655   384            381            11392          4845           74653          3.9986365e-12
       222   935.21966          92165   384            378            11591          4927           74885          4.0590398e-12
       223   947.41036          92681   384            377            11791          5014           75115          4.120316e-12 
       224   959.70077          93205   384            375            11974          5103           75369          4.1828892e-12
       225   972.10215          93741   383            372            12182          5197           75607          4.2492877e-12
       226   984.5966           94247   381            370            12389          5291           75816          4.3200696e-12
       227   997.20865          94853   381            365            12657          5379           76071          4.3956765e-12
       228   1009.9549          95408   381            360            12900          5468           76299          4.4763682e-12
       229   1022.7846          95967   381            359            13177          5539           76511          4.5627379e-12
       230   1035.9953          96572   380            357            13471          5625           76739          4.6537033e-12
       231   1049.0812          97207   380            355            13774          5721           76977          4.7490406e-12
       232   1062.2584          97799   380            351            14068          5805           77195          4.8475508e-12
       233   1075.5619          98434   378            349            14394          5890           77423          4.9520114e-12
       234   1089.0405          99089   377            346            14748          5980           77638          5.0641792e-12
       235   1102.6604          99747   375            345            15107          6074           77846          5.1900287e-12
       236   1116.4526         100484   370            343            15518          6174           78079          5.3297482e-12
       237   1130.4168         101244   368            336            15972          6294           78274          5.4863066e-12
       238   1144.6169         102074   368            336            16482          6395           78493          5.6605855e-12
       239   1158.9996         102918   366            332            16974          6531           78715          5.849145e-12 
       240   1173.8058         103746   361            330            17507          6649           78899          6.0464797e-12
       241   1188.5363         104644   359            326            18088          6778           79093          6.2512275e-12
       242   1203.5536         105548   354            321            18659          6901           79313          6.4561167e-12
       243   1218.6328         106426   348            318            19206          7046           79508          6.6600081e-12
       244   1233.9873         107355   345            317            19850          7168           79675          6.8722951e-12
       245   1249.4914         108254   343            315            20416          7298           79882          7.0758849e-12
       246   1265.1684         109183   341            312            21033          7420           80077          7.2865104e-12
       247   1280.9876         110159   339            302            21706          7550           80262          7.5051732e-12
       248   1296.9944         111099   334            299            22351          7697           80418          7.7265568e-12
       249   1313.1714         112081   332            296            23036          7829           80588          7.9484677e-12
       250   1329.6839         113081   327            287            23754          7956           80757          8.178797e-12 
       251   1346.136          114035   324            282            24428          8090           80911          8.3917686e-12
       252   1362.7033         115023   319            276            25135          8231           81062          8.6131384e-12
       253   1379.3956         115978   314            274            25795          8370           81225          8.8413212e-12
       254   1396.2221         116969   312            270            26510          8508           81369          9.0525906e-12
       255   1413.0821         118004   309            262            27244          8693           81496          9.287868e-12 
       256   1430.0823         118981   306            258            27951          8857           81609          9.512391e-12 
       257   1447.1943         120042   302            252            28693          9040           81755          9.7508633e-12
       258   1464.414          121025   298            249            29355          9255           81868          9.9709309e-12
       259   1481.7235         122034   297            240            30071          9464           81962          1.0206103e-11
       260   1499.4568         123088   289            232            30819          9689           82059          1.0417085e-11
       261   1516.9846         124053   286            226            31478          9899           82164          1.0607049e-11
       262   1534.5967         124976   279            225            32104          10119          82249          1.0791014e-11
       263   1552.2809         125917   272            221            32750          10351          82323          1.099341e-11 
       264   1570.0551         126795   263            214            33319          10611          82388          1.1166716e-11
       265   1587.9487         127746   260            207            33970          10857          82452          1.1347978e-11
       266   1605.8903         128664   253            198            34570          11136          82507          1.1508218e-11
       267   1623.9327         129449   247            191            35079          11375          82557          1.1650248e-11
       268   1642.1196         130306   237            183            35632          11643          82611          1.1785801e-11
       269   1660.3845         131122   228            180            36112          11935          82667          1.1920244e-11
       270   1679.0315         131889   224            175            36587          12203          82700          1.2032566e-11
       271   1697.4401         132608   216            165            36990          12500          82737          1.2157883e-11
       272   1715.8927         133350   203            160            37402          12817          82768          1.2251237e-11
       273   1734.4496         134056   197            154            37762          13145          82798          1.2317863e-11
       274   1753.0957         134800   193            152            38157          13473          82825          1.240875e-11 
       275   1771.7958         135449   188            149            38366          13884          82862          1.2478894e-11
       276   1790.5339         136013   179            141            38536          14267          82890          1.252995e-11 
       277   1809.3616         136508   166            133            38639          14654          82916          1.2535629e-11
       278   1828.267          137147   158            131            38882          15036          82940          1.2576669e-11
       279   1847.2815         137747   151            123            39043          15467          82963          1.2606147e-11
       280   1866.6447         138243   148            114            39124          15874          82983          1.2607285e-11
       281   1885.8156         138767   139            109            39230          16284          83005          1.2624613e-11
       282   1905.0097         139224   128            103            39275          16684          83034          1.2626839e-11
       283   1924.2674         139633   119            99             39315          17051          83049          1.2610944e-11
       284   1943.5997         140208   105            95             39528          17409          83071          1.2623646e-11
       285   1963.0437         140694   99             88             39645          17764          83098          1.2636707e-11
       286   1982.6012         141158   93             83             39730          18133          83119          1.2620386e-11
       287   2002.1594         141578   85             78             39782          18493          83140          1.2603262e-11
       288   2021.8182         142033   81             75             39916          18799          83162          1.2602352e-11
       289   2041.5181         142388   70             70             39951          19122          83175          1.2580305e-11
       290   2061.6821         142964   67             66             40250          19389          83192          1.2597181e-11
       291   2081.5486         143398   61             59             40372          19690          83216          1.2577175e-11
       292   2101.5381         143755   57             56             40413          19990          83239          1.2553035e-11
       293   2121.5089         144168   54             51             40518          20290          83255          1.2539936e-11
       294   2141.534          144635   48             49             40638          20628          83272          1.2535761e-11
       295   2161.6708         145024   44             41             40691          20953          83295          1.2527752e-11
       296   2181.8258         145380   41             36             40667          21320          83316          1.2498912e-11
       297   2202.0513         145869   37             34             40815          21654          83329          1.2507067e-11
       298   2222.3122         146319   36             32             40926          21976          83349          1.2515013e-11
       299   2242.6443         146704   34             30             40947          22322          83371          1.2500031e-11
       300   2263.6781         147128   30             29             41028          22652          83389          1.2514659e-11
       301   2284.4312         147488   25             27             41067          22967          83402          1.2494827e-11
       302   2305.1259         147876   23             26             41099          23305          83423          1.2473337e-11
       303   2325.8787         148276   19             24             41141          23653          83439          1.2447442e-11
       304   2346.6825         148710   19             23             41235          23980          83453          1.2444978e-11
       305   2367.5216         148997   18             23             41136          24345          83475          1.2429351e-11
       306   2388.4585         149372   18             22             41166          24676          83490          1.2423717e-11
       307   2409.4536         149807   18             20             41246          25013          83510          1.2408817e-11
       308   2430.5312         150184   18             19             41251          25371          83525          1.2393841e-11
       309   2451.6567         150563   18             18             41269          25714          83544          1.2397419e-11
       310   2473.1717         150894   18             17             41225          26074          83560          1.2410841e-11
       311   2494.4215         151289   18             17             41273          26401          83580          1.2392308e-11
       312   2515.7137         151621   18             17             41237          26755          83594          1.2364656e-11
       313   2537.1063         151998   18             17             41234          27114          83615          1.2375597e-11
       314   2558.5976         152389   18             17             41240          27484          83630          1.235794e-11 
       315   2580.1527         152826   18             17             41273          27868          83650          1.2387446e-11
       316   2601.7298         153062   18             17             41098          28261          83668          1.2351689e-11
       317   2623.3681         153473   18             17             41114          28637          83687          1.2365118e-11
       318   2645.1207         153864   18             17             41062          29062          83705          1.236338e-11 
       319   2666.8326         154327   18             17             41079          29486          83727          1.2395787e-11
       320   2688.9675         154725   18             17             41027          29922          83741          1.239456e-11 
Loop time of 2688.97 on 16 procs for 320 steps with 154725 atoms

97.6% CPU use with 16 MPI tasks x 1 OpenMP threads

MPI task timing breakdown:
Section |  min time  |  avg time  |  max time  |%varavg| %total
---------------------------------------------------------------
Pair    | 700.76     | 835.97     | 1009.3     | 321.8 | 31.09
Neigh   | 527.82     | 607.27     | 755.1      | 296.4 | 22.58
Comm    | 342.55     | 390.78     | 449.79     | 152.1 | 14.53
Output  | 21.885     | 21.885     | 21.887     |   0.0 |  0.81
Modify  | 458.34     | 818.91     | 1022.8     | 576.0 | 30.45
Other   |            | 14.15      |            |       |  0.53

Nlocal:        9670.31 ave       12738 max        7848 min
Histogram: 4 3 3 0 2 0 0 0 1 3
Nghost:        7608.12 ave        8999 max        5979 min
Histogram: 2 0 2 3 1 2 0 0 4 2
Neighs:        90907.7 ave      102551 max       85204 min
Histogram: 4 5 0 1 0 2 3 0 0 1

Total # of neighbors = 1454523
Ave neighs/atom = 9.400698
Neighbor list builds = 28140
Dangerous builds = 27820

Total wall time: 0:44:49
