LAMMPS (23 Jun 2022 - Update 4)
  using 1 OpenMP thread(s) per MPI task
package omp 0
using multi-threaded neighbor list subroutines
#-----------------------------------------------------------------------------#
#                NUFEB Simulation: Heterotrophic Biofilm Growth               #
#-----------------------------------------------------------------------------#


#-----------------------------System Settings---------------------------------#

units si                                    # using si units (m, s, kg)
atom_style      coccus                      # using nufeb coccus atom style
atom_modify     map array sort 10 0         # map array - find atoms using indices
		                            # sort every 10

boundary        pp pp ff                    # periodic boundaries in x and y
                                            # fixed boundary in z

newton          off                         # forces between local and ghost
                                            # atoms are computed in each
					     # processor without communication

processors      * * 1                       # processor grid

comm_modify     vel yes                     # communicate velocities for ghost atoms

read_data       atom_ch.in	             # read atom.in file which defines domain size
Reading data file ...
  orthogonal box = (0 0 0) to (6e-05 6e-05 6e-05)
  4 by 4 by 1 MPI processor grid
  reading atoms ...
  150 atoms
  read_data CPU = 0.016 seconds
                                            # and initial atoms


#--------------------Microbes and Functional Groups-------------------------#

group           CROSS1   type 1               # assign type 1,2 atoms to CROSS group
50 atoms in group CROSS1
group           CROSS2   type 2
50 atoms in group CROSS2
group		CHEATER  type 3
50 atoms in group CHEATER
group           dead     type 4
0 atoms in group dead
group		EPS	 type 5
0 atoms in group EPS

neighbor        5e-7 bin                   # setting neighbour skin distance and style

neigh_modify    check yes                  # rebuild neighbour list if any atom
                                           # had moved more than half the skin distance


#--------------------------Mesh Grid and Substrates--------------------------#

# defining grid sytle, substrate names, and grid size
grid_style      nufeb/chemostat 3 sub metab1 metab2 5e-6

# set diffusion boundary conditions and initial concentrations (liquid:kg/m3)
grid_modify     set sub      pp pp nd  1.8e-4
No /omp style for force computation currently active
grid_modify     set metab1   pp pp nd  1e-4
No /omp style for force computation currently active
grid_modify     set metab2   pp pp nd  1e-4
No /omp style for force computation currently active


#--------------------------Biological Processes-------------------------------#

# heterotrophs growth
fix growth_cross1 CROSS1 nufeb/growth/cross1 sub 3.5e-5 metab2 4e-3 metab1 growth 0.009 yield 0.6 decay 2.6e-6 metab1_exp 20 epsyield 0.12 epsdens 30

fix growth_cross2 CROSS2 nufeb/growth/cross2 sub 3.5e-5 metab1 4e-3 metab2 growth 0.009 yield 0.6 decay 2.6e-6 metab2_exp 20 epsyield 0.12 epsdens 30

fix growth_cheater CHEATER nufeb/growth/cheater sub 3.5e-5 metab1 1e-3 metab2 1e-3 growth 0.009 yield 0.6 decay 2.6e-6

# heterotrophs division, division diameter: 1.36e-6
fix div1 CROSS1 nufeb/division/coccus 1.36e-6 1259
fix div2 CROSS2 nufeb/division/coccus 1.36e-6 4730
fix div3 CHEATER nufeb/division/coccus 1.36e-6 10513

fix death1 CROSS1 nufeb/death/diameter dead 5.43e-7
fix death2 CROSS2 nufeb/death/diameter dead 5.43e-7
fix death3 CHEATER nufeb/death/diameter dead 5.43e-7

# EPS secretion from heterotrophs
fix eps1 CROSS1 nufeb/eps_secretion 5 EPS 1.1 30 18608
fix eps2 CROSS2 nufeb/eps_secretion 5 EPS 1.1 30 29015

#---------------------------Physical Processes--------------------------------#

pair_style  gran/hooke/history 1e-4 NULL 1e-5 NULL 0.0 0    # pairwise interaction
pair_coeff  * *                                             # between atoms

# pairwise interaction between z-wall and atoms
fix wall all wall/gran hooke/history 1e-3 NULL 1e-4 NULL 0 0 zplane 0.0 1e-04

fix vis all viscous 1e-5                                    # viscous damping force

fix grav all gravity 9.81 vector 0.0 0.0 -1.0

fix nve all nve/limit 1e-7                                  # NVE integration with
                                                            # maximum distance limit


#---------------------------Post-Physical Processes---------------------------#

fix coeff_sub all nufeb/diffusion_coeff sub ratio 0.8       # defining diffusion coeff in the biofilm
fix coeff_metab1 all nufeb/diffusion_coeff metab1 ratio 0.8    # region is 80% of the value in liquid
fix coeff_metab2 all nufeb/diffusion_coeff metab2 ratio 0.8

#---------------------------Chemical Processes---------------------------------#

fix diff_sub all nufeb/diffusion_reaction sub 1e-9        # diffusion reaction for updating
fix diff_metab1 all nufeb/diffusion_reaction metab1 4e-9     # distribusion of substrate concentration
fix diff_metab2 all nufeb/diffusion_reaction metab2 4e-9

#--------------------------Computations and Outputs----------------------------#

variable mass equal "mass(all)"                             # total mass
variable ncross1 equal "count(CROSS1)"                      # total # of CROSS1
variable ncross2 equal "count(CROSS2)"                      # total # of CROSS2
variable ncheater equal "count(CHEATER)"
variable ndead equal "count(dead)"
variable neps equal "count(EPS)"

shell mkdir vtk_EPS_ch                                            # dump vtk files to /vtk folder
dump du1 all vtk 10 vtk_EPS_ch/dump*.vtu id type diameter         # require build NUFEB with vtk option
dump du2 all grid/vtk 10 vtk_EPS_ch/dump_%_*.vti con rea den gro

#dump du3 all movie 10 movie.avi type diameter view 80 60    # dump video
#dump_modify du3 acolor 1 blue acolor 2 lightgrey framerate 10


                                                            # dump hdf5 files to /hdf5 folder
#shell mkdir hdf5                                           # require build NUFEB with hdf5 option
#dump du3 all nufeb/hdf5 10 dump.h5 id type x y z vx vy vz fx fy fz radius conc reac

thermo_style custom step cpu atoms v_ncross1 v_ncross2 v_ncheater v_ndead v_neps v_mass     # screen and log outputs
thermo 1
thermo_modify   lost ignore

#-----------------------------------Run----------------------------------------#

# issue run command, define timesteps for physical (pairdt) and chemical (diffdt) processes
run_style nufeb diffdt 1e-4 difftol 1e-6 pairdt 1e-2 pairtol 1 pairmax 1000 diffmax 5000

timestep 12000                                               # define biological timesteps (1000s)

run 320                                                    # growing biofilm for 900x1000s
Generated 0 of 6 mixed pair_coeff terms from geometric mixing rule
Last active /omp style is pair_style gran/hooke/history/omp
Neighbor list info ...
  update every 1 steps, delay 10 steps, check yes
  max neighbors/atom: 2000, page size: 100000
  master list distance cutoff = 2.49e-06
  ghost atom cutoff = 2.49e-06
  binsize = 1.245e-06, bins = 49 49 49
  1 neighbor lists, perpetual/occasional/extra = 1 0 0
  (1) pair gran/hooke/history/omp, perpetual
      attributes: half, newton off, size, history, omp
      pair build: half/size/bin/newtoff/omp
      stencil: full/bin/3d
      bin: standard
Per MPI rank memory allocation (min/avg/max) = 11.02 | 11.02 | 11.02 Mbytes
   Step          CPU          Atoms      v_ncross1      v_ncross2      v_ncheater      v_ndead         v_neps         v_mass    
         0   0                    150   50             50             50             0              0              1.3295396e-13
         1   0.38601712           432   90             85             86             0              171            1.726592e-13 
         2   0.76908821           800   118            128            137            0              417            1.9547717e-13
         3   1.0942144           1124   130            144            182            0              668            2.1455668e-13
         4   1.4119702           1429   138            149            200            0              942            2.3244108e-13
         5   1.6296731           1741   142            154            218            0              1227           2.4997898e-13
         6   1.7936136           2059   147            164            239            0              1509           2.6717598e-13
         7   1.9470962           2396   155            172            254            0              1815           2.8402995e-13
         8   2.1147262           2742   162            181            267            0              2132           3.007344e-13 
         9   2.249367            3123   168            193            296            0              2466           3.170802e-13 
        10   2.4126953           3488   174            200            310            0              2804           3.3289477e-13
        11   2.5501574           3865   180            212            327            0              3146           3.4825812e-13
        12   2.6735132           4249   184            219            343            0              3503           3.6341291e-13
        13   2.790055            4633   192            222            361            0              3858           3.7833378e-13
        14   2.9707018           5024   195            229            377            0              4223           3.9281748e-13
        15   3.1365591           5417   200            233            397            0              4587           4.0700521e-13
        16   3.2267418           5796   206            237            414            0              4939           4.2054272e-13
        17   3.3448573           6194   211            242            434            0              5307           4.3378063e-13
        18   3.4862954           6591   217            247            455            0              5672           4.4631869e-13
        19   3.5815981           6985   226            250            473            0              6036           4.5843344e-13
        20   3.7141383           7397   231            255            490            0              6421           4.7039874e-13
        21   3.8190737           7784   237            259            501            0              6787           4.8200708e-13
        22   3.9129076           8170   244            259            516            0              7151           4.9352243e-13
        23   4.0238106           8564   249            262            528            0              7525           5.0466127e-13
        24   4.1042211           8967   253            265            545            0              7904           5.1540767e-13
        25   4.2045795           9375   255            268            560            0              8292           5.2588382e-13
        26   4.3172113           9753   259            270            579            0              8645           5.3587058e-13
        27   4.4502038          10153   262            271            588            0              9032           5.457868e-13 
        28   4.5742997          10540   268            274            598            0              9400           5.5525779e-13
        29   4.7026535          10935   273            276            613            0              9773           5.6440009e-13
        30   4.8861529          11340   277            276            630            0              10157          5.7339288e-13
        31   5.0349009          11724   280            282            650            0              10512          5.8203612e-13
        32   5.2054541          12133   283            285            657            0              10908          5.9088438e-13
        33   5.3723342          12521   289            288            672            0              11272          5.9907772e-13
        34   5.5302225          12934   293            293            683            0              11665          6.0736825e-13
        35   5.7588131          13338   294            294            694            0              12056          6.1567071e-13
        36   5.9958186          13728   298            295            708            0              12427          6.2396033e-13
        37   6.2148755          14129   306            295            726            0              12802          6.3248599e-13
        38   6.5143743          14543   311            297            740            0              13195          6.4105087e-13
        39   6.8444816          14943   313            297            756            0              13577          6.4959197e-13
        40   7.3715377          15353   314            298            769            0              13972          6.5825475e-13
        41   8.0744479          15748   318            301            788            0              14341          6.6659004e-13
        42   8.556158           16169   320            302            802            0              14745          6.7521639e-13
        43   9.312807           16549   321            303            815            0              15110          6.8334274e-13
        44   10.116889          16970   329            303            835            0              15503          6.9133358e-13
        45   10.973406          17374   331            305            851            0              15887          6.9873808e-13
        46   11.917237          17764   333            308            866            0              16257          7.0571904e-13
        47   12.900385          18179   334            309            879            0              16657          7.1326983e-13
        48   13.910217          18585   339            311            892            0              17043          7.2063456e-13
        49   14.984287          19000   343            313            909            0              17435          7.2830774e-13
        50   16.153709          19397   345            313            924            0              17815          7.3637689e-13
        51   17.312152          19806   346            313            944            1              18202          7.4499115e-13
        52   18.470377          20214   348            314            968            1              18583          7.5416631e-13
        53   19.688613          20601   349            314            983            1              18954          7.6346512e-13
        54   20.891684          21030   353            314            1010           1              19352          7.7361783e-13
        55   22.094073          21423   354            316            1031           1              19721          7.8361656e-13
        56   23.285484          21844   357            316            1057           1              20113          7.9382825e-13
        57   24.503143          22253   359            316            1089           1              20488          8.0363286e-13
        58   25.724079          22655   359            316            1114           1              20865          8.1324861e-13
        59   26.964631          23066   364            318            1133           3              21248          8.2260881e-13
        60   28.2863            23474   365            319            1153           5              21632          8.3145306e-13
        61   29.574669          23876   367            321            1176           8              22004          8.3983402e-13
        62   30.966526          24282   368            322            1195           11             22386          8.4813923e-13
        63   32.394094          24692   369            322            1222           13             22766          8.570301e-13 
        64   33.883886          25089   371            322            1246           13             23137          8.6628391e-13
        65   35.442137          25502   372            324            1273           17             23516          8.7587425e-13
        66   37.065134          25929   373            324            1303           19             23910          8.8665018e-13
        67   38.658235          26304   374            326            1325           25             24254          8.9810649e-13
        68   40.318273          26755   374            326            1363           28             24664          9.1033803e-13
        69   41.948801          27125   376            326            1392           32             24999          9.2314392e-13
        70   43.680009          27552   377            327            1432           32             25384          9.3654536e-13
        71   45.343214          27953   378            328            1471           36             25740          9.4990965e-13
        72   47.05638           28363   378            328            1506           40             26111          9.6336738e-13
        73   48.858781          28762   378            328            1543           47             26466          9.7734191e-13
        74   50.676589          29188   379            330            1589           52             26838          9.9130685e-13
        75   52.57153           29593   379            330            1631           58             27195          1.0059364e-12
        76   54.500397          29995   380            331            1678           63             27543          1.0213641e-12
        77   56.498775          30407   381            331            1735           65             27895          1.0374004e-12
        78   58.510394          30807   381            331            1779           75             28241          1.0546531e-12
        79   60.572394          31222   382            331            1839           81             28589          1.07277e-12  
        80   62.732818          31636   382            331            1897           90             28936          1.0913979e-12
        81   64.839753          32039   383            331            1957           98             29270          1.1101011e-12
        82   66.925179          32446   384            331            2014           105            29612          1.1290559e-12
        83   69.084019          32853   384            332            2067           117            29953          1.1476225e-12
        84   71.204662          33265   384            333            2124           124            30300          1.1661658e-12
        85   73.397241          33660   384            334            2166           143            30633          1.1840092e-12
        86   75.661678          34069   384            334            2220           153            30978          1.201976e-12 
        87   77.999698          34465   384            335            2276           168            31302          1.2203434e-12
        88   80.398609          34885   384            335            2341           180            31645          1.2394387e-12
        89   82.849059          35275   384            336            2399           190            31966          1.2595708e-12
        90   85.416803          35690   384            336            2477           198            32295          1.2809881e-12
        91   87.960166          36084   384            337            2535           213            32615          1.3033124e-12
        92   90.518068          36500   385            337            2602           223            32953          1.3261369e-12
        93   93.134389          36895   385            339            2679           228            33264          1.3492061e-12
        94   95.746794          37324   385            339            2765           233            33602          1.3725942e-12
        95   98.376787          37725   385            339            2845           245            33911          1.3955507e-12
        96   101.0603           38129   385            339            2914           250            34241          1.4179583e-12
        97   103.838            38541   385            340            3001           254            34561          1.4399971e-12
        98   106.64972          38951   385            340            3089           257            34880          1.4618962e-12
        99   109.55876          39355   385            340            3159           263            35208          1.4838364e-12
       100   112.62192          39749   385            340            3228           271            35525          1.5066457e-12
       101   115.66639          40158   385            341            3315           279            35838          1.5294707e-12
       102   118.755            40551   385            342            3395           285            36144          1.5526913e-12
       103   121.90569          40978   385            343            3490           293            36467          1.5767512e-12
       104   125.10033          41396   385            343            3576           306            36786          1.6012559e-12
       105   128.35353          41788   385            343            3656           316            37088          1.6260531e-12
       106   131.65551          42192   385            344            3737           324            37402          1.6510533e-12
       107   135.00331          42621   385            344            3836           334            37722          1.67593e-12  
       108   138.35303          43013   385            344            3916           347            38021          1.7004745e-12
       109   141.83525          43426   385            344            3998           365            38334          1.7246481e-12
       110   145.48974          43826   385            346            4086           377            38632          1.7496075e-12
       111   149.08929          44212   385            347            4163           388            38929          1.7759402e-12
       112   152.76375          44640   385            348            4261           400            39246          1.8027028e-12
       113   156.51774          45066   385            348            4371           413            39549          1.8310878e-12
       114   160.33671          45472   385            348            4460           429            39850          1.8605888e-12
       115   164.23058          45882   385            348            4558           449            40142          1.8916026e-12
       116   168.18836          46315   385            349            4678           467            40436          1.9233505e-12
       117   172.21421          46736   385            349            4785           486            40731          1.9553004e-12
       118   176.30041          47149   385            349            4895           510            41010          1.9868636e-12
       119   180.46172          47591   385            351            4990           538            41327          2.0188827e-12
       120   184.80618          47994   385            352            5106           558            41593          2.0512566e-12
       121   189.12993          48446   385            353            5211           594            41903          2.083485e-12 
       122   193.55742          48866   385            353            5316           628            42184          2.1171238e-12
       123   198.05821          49319   385            353            5440           669            42472          2.1522902e-12
       124   202.61826          49774   385            353            5549           711            42776          2.1894973e-12
       125   207.25721          50210   385            354            5674           757            43040          2.2283888e-12
       126   211.98337          50684   385            355            5807           803            43334          2.2686916e-12
       127   216.80397          51125   384            356            5923           852            43610          2.3093878e-12
       128   221.72663          51576   384            356            6048           895            43893          2.3509963e-12
       129   226.74667          52056   383            355            6190           948            44180          2.3924971e-12
       130   231.99369          52498   383            356            6312           998            44449          2.435497e-12 
       131   237.19882          52965   383            357            6445           1044           44736          2.4791901e-12
       132   242.55929          53427   383            357            6588           1082           45017          2.5242614e-12
       133   247.97918          53890   384            357            6725           1135           45289          2.5717273e-12
       134   253.4889           54353   384            356            6860           1188           45565          2.6211174e-12
       135   259.11858          54840   384            356            7026           1245           45829          2.6718661e-12
       136   264.83493          55329   384            356            7194           1295           46100          2.7245414e-12
       137   270.68677          55806   384            358            7338           1352           46374          2.7773979e-12
       138   276.66365          56306   384            358            7503           1404           46657          2.8312751e-12
       139   282.7711           56793   384            356            7671           1465           46917          2.8860018e-12
       140   289.1412           57281   384            356            7842           1520           47179          2.9424875e-12
       141   295.5649           57816   384            357            8031           1574           47470          3.0024531e-12
       142   302.15808          58326   384            357            8215           1638           47732          3.0650667e-12
       143   308.87311          58819   384            357            8397           1687           47994          3.1307551e-12
       144   315.70999          59358   384            357            8621           1728           48268          3.2002871e-12
       145   322.67477          59901   384            357            8858           1778           48524          3.2726385e-12
       146   329.73285          60433   384            357            9081           1826           48785          3.3475066e-12
       147   336.99417          60990   384            357            9330           1861           49058          3.425629e-12 
       148   344.39059          61549   384            357            9588           1906           49314          3.5084318e-12
       149   351.93732          62129   383            357            9852           1960           49577          3.596791e-12 
       150   359.76064          62724   383            357            10141          2007           49836          3.6919886e-12
       151   367.63892          63363   383            357            10459          2058           50106          3.7953371e-12
       152   375.76368          64003   382            357            10788          2124           50352          3.9075317e-12
       153   384.02056          64671   382            358            11117          2184           50630          4.0305909e-12
       154   392.48467          65369   381            358            11523          2233           50874          4.1659602e-12
       155   401.13314          66084   381            358            11935          2284           51126          4.3043632e-12
       156   409.99028          66829   381            358            12389          2316           51385          4.4467233e-12
       157   419.06621          67593   381            358            12867          2347           51640          4.5960913e-12
       158   428.34202          68285   380            357            13287          2403           51858          4.740042e-12 
       159   437.85872          69037   380            356            13712          2450           52139          4.8840117e-12
       160   447.74766          69807   380            356            14159          2516           52396          5.0289486e-12
       161   457.73497          70518   380            356            14619          2572           52591          5.1721469e-12
       162   467.85155          71315   380            356            15095          2619           52865          5.3191526e-12
       163   478.18057          72135   380            356            15599          2675           53125          5.4753866e-12
       164   488.64611          72873   381            354            16065          2733           53340          5.6251827e-12
       165   499.33127          73646   381            354            16569          2784           53558          5.7892096e-12
       166   510.183            74458   381            354            17058          2841           53824          5.9398084e-12
       167   521.20616          75306   381            353            17595          2912           54065          6.1160821e-12
       168   532.33588          76119   380            353            18141          2981           54264          6.279774e-12 
       169   543.58624          76945   380            352            18638          3074           54501          6.4546273e-12
       170   555.12982          77844   380            352            19213          3164           54735          6.6430524e-12
       171   566.67773          78729   379            351            19787          3273           54939          6.8090409e-12
       172   578.35253          79582   379            351            20325          3376           55151          6.9770421e-12
       173   590.11037          80507   379            350            20929          3481           55368          7.1610908e-12
       174   601.98677          81378   380            349            21468          3603           55578          7.3484169e-12
       175   613.95965          82260   379            349            22093          3697           55742          7.5547742e-12
       176   626.05149          83163   379            349            22665          3819           55951          7.7629192e-12
       177   638.22627          84116   379            348            23303          3934           56152          7.9651027e-12
       178   650.47402          85091   379            347            23950          4090           56325          8.1715911e-12
       179   662.85491          86021   378            347            24581          4241           56474          8.3846369e-12
       180   675.53403          86938   378            347            25135          4435           56643          8.5807777e-12
       181   688.05485          87832   378            345            25721          4583           56805          8.7888658e-12
       182   700.67152          88855   378            344            26400          4766           56967          8.9963676e-12
       183   713.34281          89765   378            343            26979          4968           57097          9.1972417e-12
       184   726.07554          90766   378            343            27668          5144           57233          9.431321e-12 
       185   738.86223          91661   378            341            28233          5351           57358          9.6262629e-12
       186   751.71177          92649   378            338            28914          5553           57466          9.8482029e-12
       187   764.63462          93635   378            338            29515          5806           57598          1.0050891e-11
       188   777.65356          94503   378            338            30032          6034           57721          1.0239931e-11
       189   790.83947          95439   376            334            30600          6310           57819          1.0437252e-11
       190   804.29014          96318   375            333            31197          6504           57909          1.0627349e-11
       191   817.64253          97208   375            331            31784          6738           57980          1.0784411e-11
       192   831.07993          98032   375            327            32256          7005           58069          1.0945445e-11
       193   844.54687          98796   375            324            32693          7264           58140          1.1079493e-11
       194   858.08389          99583   375            322            33129          7530           58227          1.1204347e-11
       195   871.71944         100341   374            318            33567          7771           58311          1.1319218e-11
       196   885.44322         101101   373            314            34032          8017           58365          1.1442328e-11
       197   899.24788         101771   372            309            34385          8260           58445          1.1530023e-11
       198   913.11275         102505   371            304            34874          8455           58501          1.1648327e-11
       199   927.05659         103184   370            302            35263          8686           58563          1.1697616e-11
       200   941.32606         103858   370            299            35687          8886           58616          1.1768865e-11
       201   955.41813         104455   369            294            36049          9070           58673          1.1849369e-11
       202   969.5759          105037   365            292            36440          9237           58703          1.1896384e-11
       203   983.77752         105601   359            288            36811          9393           58750          1.1938431e-11
       204   998.10452         106178   357            286            37159          9574           58802          1.1981255e-11
       205   1012.4763         106807   352            281            37605          9731           58838          1.2006211e-11
       206   1026.9094         107312   343            274            37843          9962           58890          1.2031723e-11
       207   1041.4457         107882   339            268            38153          10187          58935          1.2074223e-11
       208   1056.0347         108365   335            262            38337          10447          58984          1.2101828e-11
       209   1070.6814         108929   330            254            38590          10728          59027          1.2120321e-11
       210   1085.6241         109496   324            246            38818          11029          59079          1.2128136e-11
       211   1100.3883         109990   315            242            38973          11342          59118          1.2140398e-11
       212   1115.2271         110440   304            234            39080          11676          59146          1.2145727e-11
       213   1130.0905         110921   297            222            39235          11986          59181          1.2150643e-11
       214   1145.0606         111319   288            216            39272          12323          59220          1.2137179e-11
       215   1160.0747         111866   282            210            39435          12680          59259          1.2141054e-11
       216   1175.1518         112287   268            201            39471          13055          59292          1.212776e-11 
       217   1190.3094         112792   260            196            39594          13404          59338          1.2133736e-11
       218   1205.5597         113193   247            184            39654          13728          59380          1.2131381e-11
       219   1220.8935         113571   240            178            39630          14101          59422          1.212186e-11 
       220   1236.5585         114108   225            168            39771          14477          59467          1.2133825e-11
       221   1252.038          114573   217            157            39893          14795          59511          1.2103725e-11
       222   1267.5903         114939   206            147            39922          15113          59551          1.209168e-11 
       223   1283.1962         115315   196            137            39978          15423          59581          1.2092779e-11
       224   1298.8941         115778   186            132            40112          15731          59617          1.2086985e-11
       225   1314.6112         116203   177            127            40196          16042          59661          1.2089671e-11
       226   1330.388          116568   166            119            40233          16348          59702          1.2053153e-11
       227   1346.2284         116985   152            111            40328          16660          59734          1.2062537e-11
       228   1362.115          117480   138            106            40477          16990          59769          1.2066886e-11
       229   1378.1018         117844   129            101            40465          17343          59806          1.2039555e-11
       230   1394.4107         118232   123            93             40517          17652          59847          1.2032174e-11
       231   1410.523          118652   116            87             40607          17958          59884          1.2041512e-11
       232   1426.6609         119003   108            80             40641          18253          59921          1.2026152e-11
       233   1442.9456         119454   102            73             40737          18590          59952          1.2023429e-11
       234   1459.2953         119817   93             69             40713          18952          59990          1.1999918e-11
       235   1475.6959         120235   89             64             40776          19282          60024          1.2022103e-11
       236   1492.1738         120658   81             62             40848          19609          60058          1.2019219e-11
       237   1508.7216         121074   75             59             40910          19935          60095          1.2005748e-11
       238   1525.3722         121438   70             57             40918          20271          60122          1.2006983e-11
       239   1542.0655         121834   61             55             40921          20640          60157          1.2021528e-11
       240   1559.0271         122181   58             51             40898          20992          60182          1.2006696e-11
       241   1575.7838         122528   53             50             40870          21331          60224          1.1993218e-11
       242   1592.5909         122936   50             49             40885          21705          60247          1.1993601e-11
       243   1609.4722         123396   47             46             40890          22130          60283          1.2010275e-11
       244   1626.4478         123748   43             44             40850          22503          60308          1.2001653e-11
       245   1643.5117         124077   42             43             40751          22903          60338          1.1977062e-11
       246   1660.6027         124367   39             42             40563          23353          60370          1.1970124e-11
       247   1677.8066         124763   36             40             40457          23834          60396          1.1982278e-11
       248   1695.1326         125188   34             39             40409          24283          60423          1.1989412e-11
       249   1712.4993         125569   32             36             40310          24742          60449          1.1991526e-11
       250   1730.2158         125948   32             36             40215          25185          60480          1.2008101e-11
       251   1747.6794         126242   31             36             39965          25710          60500          1.1981067e-11
       252   1765.193          126581   30             32             39778          26210          60531          1.198821e-11 
       253   1782.8185         126939   30             31             39613          26712          60553          1.1990982e-11
       254   1800.5075         127315   28             29             39474          27206          60578          1.2000044e-11
       255   1818.2403         127630   27             29             39288          27684          60602          1.1994626e-11
       256   1836.0346         128035   27             29             39185          28168          60626          1.2012388e-11
       257   1853.9061         128416   27             28             39059          28650          60652          1.2032294e-11
       258   1871.8359         128743   24             28             38917          29095          60679          1.2038396e-11
       259   1889.876          129090   24             27             38745          29596          60698          1.2061888e-11
       260   1908.2644         129499   21             27             38617          30113          60721          1.2052694e-11
       261   1926.4306         129769   21             27             38416          30562          60743          1.2052784e-11
       262   1944.6984         130136   21             27             38284          31035          60769          1.2075889e-11
       263   1963.0014         130437   21             27             38115          31487          60787          1.2084698e-11
       264   1981.3844         130770   21             27             37943          31963          60816          1.2061525e-11
       265   1999.8091         131186   21             27             37883          32422          60833          1.2089194e-11
       266   2018.399          131523   20             27             37738          32876          60862          1.2103147e-11
       267   2036.8627         131879   20             27             37618          33332          60882          1.2135888e-11
       268   2055.521          132152   20             27             37436          33763          60906          1.2111745e-11
       269   2074.1142         132446   20             27             37289          34182          60928          1.2123197e-11
       270   2093.0595         132842   20             27             37236          34608          60951          1.2129831e-11
       271   2111.8845         133192   20             26             37135          35035          60976          1.2142903e-11
       272   2130.7293         133467   20             25             36982          35441          60999          1.2134116e-11
       273   2149.4809         133900   20             25             36974          35859          61022          1.2180682e-11
       274   2168.4432         134231   20             24             36885          36257          61045          1.2179873e-11
       275   2187.3726         134543   20             24             36803          36629          61067          1.2189846e-11
       276   2206.4498         134847   20             24             36725          36988          61090          1.2195721e-11
       277   2225.5721         135155   20             24             36640          37360          61111          1.2195358e-11
       278   2244.6753         135565   20             24             36651          37731          61139          1.2219246e-11
       279   2263.7844         135954   20             24             36656          38097          61157          1.2245522e-11
       280   2283.4314         136159   20             23             36502          38431          61183          1.2218365e-11
       281   2302.8952         136480   19             22             36444          38791          61204          1.2228483e-11
       282   2322.2634         136798   19             22             36386          39145          61226          1.2252133e-11
       283   2341.5952         137195   19             22             36436          39471          61247          1.2264478e-11
       284   2361.121          137512   19             22             36367          39836          61268          1.2268967e-11
       285   2380.6328         137819   19             22             36298          40186          61294          1.2266578e-11
       286   2400.1845         138221   19             22             36359          40507          61314          1.2301327e-11
       287   2419.8691         138413   19             22             36172          40863          61337          1.2293478e-11
       288   2439.5862         138791   19             22             36222          41167          61361          1.2306791e-11
       289   2459.4295         139159   19             22             36257          41480          61381          1.2311736e-11
       290   2479.6548         139449   19             22             36153          41851          61404          1.2309222e-11
       291   2499.6025         139780   19             22             36128          42183          61428          1.2337775e-11
       292   2519.5925         140104   19             22             36103          42510          61450          1.2351009e-11
       293   2539.6577         140438   19             22             36090          42836          61471          1.2361023e-11
       294   2559.7686         140724   19             22             36028          43163          61492          1.2364016e-11
       295   2579.9668         141152   19             22             36107          43487          61517          1.2396204e-11
       296   2600.26           141415   19             22             36038          43801          61535          1.2397309e-11
       297   2620.6874         141708   19             22             36004          44101          61562          1.2375988e-11
       298   2641.0941         142026   19             22             35974          44430          61581          1.2397548e-11
       299   2661.5735         142323   19             22             35943          44733          61606          1.2416561e-11
       300   2682.6877         142664   19             20             35922          45078          61625          1.2421255e-11
       301   2703.2951         143005   19             20             35940          45378          61648          1.2452396e-11
       302   2723.9409         143366   19             20             35966          45693          61668          1.2456291e-11
       303   2744.6117         143568   19             20             35816          46024          61689          1.2455451e-11
       304   2765.4078         143918   19             20             35830          46336          61713          1.2463691e-11
       305   2786.2327         144163   19             20             35727          46667          61730          1.2460071e-11
       306   2807.1571         144541   19             20             35748          46999          61755          1.2479745e-11
       307   2828.1625         144944   19             20             35816          47314          61775          1.2498678e-11
       308   2849.207          145256   19             20             35817          47601          61799          1.2526856e-11
       309   2870.2992         145553   19             20             35792          47904          61818          1.2540272e-11
       310   2891.8464         145878   19             20             35781          48220          61838          1.2541495e-11
       311   2913.1707         146075   19             20             35663          48510          61863          1.2518477e-11
       312   2934.4769         146439   19             20             35706          48814          61880          1.2536034e-11
       313   2955.8863         146863   19             20             35783          49133          61908          1.2562981e-11
       314   2977.4132         147131   19             20             35753          49417          61922          1.2558297e-11
       315   2998.9824         147392   19             20             35684          49718          61951          1.2554824e-11
       316   3020.584          147700   19             20             35661          50035          61965          1.2585395e-11
       317   3042.3097         147967   19             20             35603          50332          61993          1.2584419e-11
       318   3064.0798         148336   19             20             35600          50684          62013          1.26158e-11  
       319   3085.949          148648   19             20             35563          51012          62034          1.2618123e-11
       320   3108.2986         149037   19             20             35642          51299          62057          1.26625e-11  
Loop time of 3108.3 on 16 procs for 320 steps with 149037 atoms

98.1% CPU use with 16 MPI tasks x 1 OpenMP threads

MPI task timing breakdown:
Section |  min time  |  avg time  |  max time  |%varavg| %total
---------------------------------------------------------------
Pair    | 792.87     | 900.66     | 1168.1     | 297.3 | 28.98
Neigh   | 478        | 568.2      | 916.58     | 538.8 | 18.28
Comm    | 357.48     | 431.87     | 517.46     | 261.0 | 13.89
Output  | 5.9839     | 5.9841     | 5.9856     |   0.0 |  0.19
Modify  | 487.78     | 1187.3     | 1437.4     | 731.0 | 38.20
Other   |            | 14.26      |            |       |  0.46

Nlocal:        9314.81 ave       14165 max        8054 min
Histogram: 10 2 0 2 0 0 0 0 0 2
Nghost:        7230.94 ave        9650 max        6186 min
Histogram: 7 2 1 2 0 0 2 0 0 2
Neighs:        92056.5 ave      109479 max       86300 min
Histogram: 7 3 1 1 2 0 1 0 0 1

Total # of neighbors = 1472904
Ave neighs/atom = 9.8828076
Neighbor list builds = 28158
Dangerous builds = 27838

Total wall time: 0:52:09
