LAMMPS (23 Jun 2022 - Update 4)
  using 1 OpenMP thread(s) per MPI task
package omp 0
using multi-threaded neighbor list subroutines
#-----------------------------------------------------------------------------#
#                NUFEB Simulation: Heterotrophic Biofilm Growth               #
#-----------------------------------------------------------------------------#


#-----------------------------System Settings---------------------------------#

units si                                    # using si units (m, s, kg)
atom_style      coccus                      # using nufeb coccus atom style
atom_modify     map array sort 10 0         # map array - find atoms using indices
		                            # sort every 10

boundary        pp pp ff                    # periodic boundaries in x and y
                                            # fixed boundary in z

newton          off                         # forces between local and ghost
                                            # atoms are computed in each
					     # processor without communication

processors      * * 1                       # processor grid

comm_modify     vel yes                     # communicate velocities for ghost atoms

read_data       atom_ch.in	             # read atom.in file which defines domain size
Reading data file ...
  orthogonal box = (0 0 0) to (6e-05 6e-05 6e-05)
  4 by 4 by 1 MPI processor grid
  reading atoms ...
  150 atoms
  read_data CPU = 0.010 seconds
                                            # and initial atoms


#--------------------Microbes and Functional Groups-------------------------#

group           CROSS1   type 1               # assign type 1,2 atoms to CROSS group
50 atoms in group CROSS1
group           CROSS2   type 2
50 atoms in group CROSS2
group		CHEATER  type 3
50 atoms in group CHEATER
group           dead     type 4
0 atoms in group dead
group		EPS	 type 5
0 atoms in group EPS

neighbor        5e-7 bin                   # setting neighbour skin distance and style

neigh_modify    check yes                  # rebuild neighbour list if any atom
                                           # had moved more than half the skin distance


#--------------------------Mesh Grid and Substrates--------------------------#

# defining grid sytle, substrate names, and grid size
grid_style      nufeb/chemostat 3 sub metab1 metab2 5e-6

# set diffusion boundary conditions and initial concentrations (liquid:kg/m3)
grid_modify     set sub      pp pp nd  1.8e-4
No /omp style for force computation currently active
grid_modify     set metab1   pp pp nd  1e-4
No /omp style for force computation currently active
grid_modify     set metab2   pp pp nd  1e-4
No /omp style for force computation currently active


#--------------------------Biological Processes-------------------------------#

# heterotrophs growth
fix growth_cross1 CROSS1 nufeb/growth/cross1 sub 3.5e-5 metab2 4e-3 metab1 growth 0.009 yield 0.6 decay 2.6e-6 metab1_exp 20 epsyield 0.12 epsdens 30

fix growth_cross2 CROSS2 nufeb/growth/cross2 sub 3.5e-5 metab1 4e-3 metab2 growth 0.009 yield 0.6 decay 2.6e-6 metab2_exp 20 epsyield 0.12 epsdens 30

fix growth_cheater CHEATER nufeb/growth/cheater sub 3.5e-5 metab1 1e-3 metab2 1e-3 growth 0.009 yield 0.6 decay 2.6e-6

# heterotrophs division, division diameter: 1.36e-6
fix div1 CROSS1 nufeb/division/coccus 1.36e-6 1328
fix div2 CROSS2 nufeb/division/coccus 1.36e-6 5006
fix div3 CHEATER nufeb/division/coccus 1.36e-6 11134

fix death1 CROSS1 nufeb/death/diameter dead 5.43e-7
fix death2 CROSS2 nufeb/death/diameter dead 5.43e-7
fix death3 CHEATER nufeb/death/diameter dead 5.43e-7

# EPS secretion from heterotrophs
fix eps1 CROSS1 nufeb/eps_secretion 5 EPS 1.1 30 19712
fix eps2 CROSS2 nufeb/eps_secretion 5 EPS 1.1 30 30740

#---------------------------Physical Processes--------------------------------#

pair_style  gran/hooke/history 1e-4 NULL 1e-5 NULL 0.0 0    # pairwise interaction
pair_coeff  * *                                             # between atoms

# pairwise interaction between z-wall and atoms
fix wall all wall/gran hooke/history 1e-3 NULL 1e-4 NULL 0 0 zplane 0.0 1e-04

fix vis all viscous 1e-5                                    # viscous damping force

fix grav all gravity 9.81 vector 0.0 0.0 -1.0

fix nve all nve/limit 1e-7                                  # NVE integration with
                                                            # maximum distance limit


#---------------------------Post-Physical Processes---------------------------#

fix coeff_sub all nufeb/diffusion_coeff sub ratio 0.8       # defining diffusion coeff in the biofilm
fix coeff_metab1 all nufeb/diffusion_coeff metab1 ratio 0.8    # region is 80% of the value in liquid
fix coeff_metab2 all nufeb/diffusion_coeff metab2 ratio 0.8

#---------------------------Chemical Processes---------------------------------#

fix diff_sub all nufeb/diffusion_reaction sub 1e-9        # diffusion reaction for updating
fix diff_metab1 all nufeb/diffusion_reaction metab1 4e-9     # distribusion of substrate concentration
fix diff_metab2 all nufeb/diffusion_reaction metab2 4e-9

#--------------------------Computations and Outputs----------------------------#

variable mass equal "mass(all)"                             # total mass
variable ncross1 equal "count(CROSS1)"                      # total # of CROSS1
variable ncross2 equal "count(CROSS2)"                      # total # of CROSS2
variable ncheater equal "count(CHEATER)"
variable ndead equal "count(dead)"
variable neps equal "count(EPS)"

shell mkdir vtk_EPS_ch                                            # dump vtk files to /vtk folder
dump du1 all vtk 10 vtk_EPS_ch/dump*.vtu id type diameter         # require build NUFEB with vtk option
dump du2 all grid/vtk 10 vtk_EPS_ch/dump_%_*.vti con rea den gro

#dump du3 all movie 10 movie.avi type diameter view 80 60    # dump video
#dump_modify du3 acolor 1 blue acolor 2 lightgrey framerate 10


                                                            # dump hdf5 files to /hdf5 folder
#shell mkdir hdf5                                           # require build NUFEB with hdf5 option
#dump du3 all nufeb/hdf5 10 dump.h5 id type x y z vx vy vz fx fy fz radius conc reac

thermo_style custom step cpu atoms v_ncross1 v_ncross2 v_ncheater v_ndead v_neps v_mass     # screen and log outputs
thermo 1
thermo_modify   lost ignore

#-----------------------------------Run----------------------------------------#

# issue run command, define timesteps for physical (pairdt) and chemical (diffdt) processes
run_style nufeb diffdt 1e-4 difftol 1e-6 pairdt 1e-2 pairtol 1 pairmax 1000 diffmax 5000

timestep 12000                                               # define biological timesteps (1000s)

run 320                                                    # growing biofilm for 900x1000s
Generated 0 of 6 mixed pair_coeff terms from geometric mixing rule
Last active /omp style is pair_style gran/hooke/history/omp
Neighbor list info ...
  update every 1 steps, delay 10 steps, check yes
  max neighbors/atom: 2000, page size: 100000
  master list distance cutoff = 2.49e-06
  ghost atom cutoff = 2.49e-06
  binsize = 1.245e-06, bins = 49 49 49
  1 neighbor lists, perpetual/occasional/extra = 1 0 0
  (1) pair gran/hooke/history/omp, perpetual
      attributes: half, newton off, size, history, omp
      pair build: half/size/bin/newtoff/omp
      stencil: full/bin/3d
      bin: standard
Per MPI rank memory allocation (min/avg/max) = 11.02 | 11.02 | 11.02 Mbytes
   Step          CPU          Atoms      v_ncross1      v_ncross2      v_ncheater      v_ndead         v_neps         v_mass    
         0   0                    150   50             50             50             0              0              1.3295396e-13
         1   0.38303532           432   90             85             86             0              171            1.7259883e-13
         2   0.76068066           799   122            125            136            0              416            1.9566899e-13
         3   1.087597            1130   129            148            177            0              676            2.1477894e-13
         4   1.405198            1439   136            154            201            0              948            2.3270534e-13
         5   1.6168734           1753   140            157            219            0              1237           2.5041419e-13
         6   1.7870033           2069   146            168            234            0              1521           2.6789673e-13
         7   1.9510611           2421   154            176            260            0              1831           2.8523579e-13
         8   2.1302795           2770   163            185            276            0              2146           3.0241073e-13
         9   2.2551885           3143   168            196            298            0              2481           3.192433e-13 
        10   2.4061806           3495   174            198            315            0              2808           3.3540444e-13
        11   2.5732966           3872   180            206            335            0              3151           3.5125143e-13
        12   2.6859116           4244   184            211            352            0              3497           3.6700397e-13
        13   2.8058289           4637   193            215            374            0              3855           3.8233926e-13
        14   2.92291             5014   197            219            394            0              4204           3.9714965e-13
        15   3.0568879           5413   203            223            410            0              4577           4.1134015e-13
        16   3.1751522           5791   206            226            430            0              4929           4.2519137e-13
        17   3.3035954           6189   210            233            447            0              5299           4.3877783e-13
        18   3.44393             6588   216            239            465            0              5668           4.5219742e-13
        19   3.5936932           6966   217            242            490            0              6017           4.6544518e-13
        20   12.298888           7345   221            247            506            0              6371           4.7855538e-13
        21   12.44592            7744   225            256            524            0              6739           4.9155287e-13
        22   12.597338           8158   232            261            547            0              7118           5.0454839e-13
        23   12.752683           8556   239            262            559            0              7496           5.1726745e-13
        24   12.906388           8956   241            269            583            0              7863           5.2992839e-13
        25   13.055732           9347   243            273            602            0              8229           5.4236577e-13
        26   13.203267           9750   247            276            627            0              8600           5.547943e-13 
        27   13.356156          10165   253            284            648            0              8980           5.669024e-13 
        28   13.492798          10553   259            287            664            0              9343           5.7872094e-13
        29   13.640365          10967   259            291            694            0              9723           5.9025095e-13
        30   13.795567          11366   264            295            715            0              10092          6.0124611e-13
        31   13.927441          11773   266            297            739            0              10471          6.11889e-13  
        32   14.097382          12158   267            299            758            0              10834          6.2212303e-13
        33   14.275952          12556   272            302            770            0              11212          6.3216995e-13
        34   14.478575          12953   275            304            784            0              11590          6.4227068e-13
        35   14.748055          13343   275            307            806            0              11955          6.5240373e-13
        36   14.991228          13738   277            309            823            0              12329          6.628398e-13 
        37   15.3322            14124   279            309            848            0              12688          6.731285e-13 
        38   15.690339          14520   284            311            866            0              13059          6.8386596e-13
        39   16.102081          14914   286            312            886            0              13430          6.9459732e-13
        40   17.64857           15328   290            315            909            0              13814          7.0550687e-13
        41   18.023268          15717   290            316            931            0              14180          7.164186e-13 
        42   18.469018          16114   291            318            955            0              14550          7.2677534e-13
        43   18.882227          16502   292            320            984            0              14906          7.3730305e-13
        44   19.373533          16913   292            323            1010           0              15288          7.4707582e-13
        45   20.230009          17296   294            324            1026           0              15652          7.5632766e-13
        46   21.162359          17699   297            327            1052           0              16023          7.6544538e-13
        47   22.170468          18100   301            330            1077           0              16392          7.7446478e-13
        48   22.909936          18494   301            331            1100           0              16762          7.8395435e-13
        49   23.818615          18899   301            333            1123           0              17142          7.9313665e-13
        50   25.023254          19288   303            335            1155           0              17495          8.0289826e-13
        51   26.292222          19698   304            337            1180           0              17877          8.1331939e-13
        52   27.508144          20087   304            341            1210           0              18232          8.2508795e-13
        53   28.785378          20510   305            343            1242           0              18620          8.3745702e-13
        54   30.037994          20907   308            344            1285           0              18970          8.5052113e-13
        55   31.316518          21313   309            345            1318           2              19339          8.6391135e-13
        56   32.642464          21711   310            345            1360           3              19693          8.7764565e-13
        57   33.946337          22104   310            346            1391           5              20052          8.9173705e-13
        58   35.282104          22506   311            347            1433           6              20409          9.0573999e-13
        59   36.637325          22926   313            348            1485           7              20773          9.1967164e-13
        60   38.122922          23313   315            349            1516           10             21123          9.3349825e-13
        61   39.577722          23716   315            352            1565           11             21473          9.4781608e-13
        62   41.166084          24125   316            353            1618           15             21823          9.6287352e-13
        63   42.74787           24527   316            354            1664           18             22175          9.7924212e-13
        64   44.340798          24948   318            356            1708           23             22543          9.9609721e-13
        65   45.992563          25335   319            357            1764           26             22869          1.01342e-12  
        66   47.674023          25750   321            358            1820           30             23221          1.0315628e-12
        67   49.36822           26146   322            359            1876           39             23550          1.050387e-12 
        68   51.071014          26556   322            360            1933           46             23895          1.0697617e-12
        69   52.78772           26971   323            361            1997           51             24239          1.0892234e-12
        70   54.622738          27371   323            361            2062           56             24569          1.1085099e-12
        71   56.447975          27772   323            361            2114           68             24906          1.1279913e-12
        72   58.359007          28156   324            362            2179           75             25216          1.1483451e-12
        73   60.260833          28569   324            362            2241           85             25557          1.168985e-12 
        74   62.186503          28955   325            362            2301           99             25868          1.189995e-12 
        75   64.13497           29370   325            362            2374           107            26202          1.211818e-12 
        76   66.142644          29758   328            362            2432           114            26522          1.2338349e-12
        77   68.180517          30162   331            362            2512           121            26836          1.2567621e-12
        78   70.237501          30564   331            363            2586           130            27154          1.2806746e-12
        79   72.334944          30979   331            364            2673           140            27471          1.3047973e-12
        80   74.58647           31364   331            364            2739           153            27777          1.3291692e-12
        81   76.781927          31747   331            364            2805           165            28082          1.3535909e-12
        82   78.98058           32176   334            365            2881           175            28421          1.3777969e-12
        83   81.247816          32573   334            365            2980           185            28709          1.4016024e-12
        84   83.553553          32986   335            365            3058           201            29027          1.4255109e-12
        85   85.931524          33390   335            365            3138           212            29340          1.4494011e-12
        86   88.357958          33776   336            366            3211           223            29640          1.4737845e-12
        87   90.827783          34175   337            366            3296           234            29942          1.4985921e-12
        88   93.32507           34597   337            366            3386           245            30263          1.5245405e-12
        89   95.890947          34983   337            366            3485           246            30549          1.5506136e-12
        90   98.571453          35352   337            366            3565           250            30834          1.5781837e-12
        91   101.20395          35804   337            366            3682           259            31160          1.6062181e-12
        92   103.90537          36188   337            366            3785           265            31435          1.6336909e-12
        93   106.60217          36608   338            366            3874           273            31757          1.6610624e-12
        94   109.36629          37008   338            366            3977           282            32045          1.6880765e-12
        95   112.18844          37400   338            366            4075           292            32329          1.7149353e-12
        96   115.07498          37805   338            366            4175           300            32626          1.7418095e-12
        97   117.99364          38197   338            366            4275           305            32913          1.7696888e-12
        98   120.97117          38618   338            366            4384           317            33213          1.7986678e-12
        99   123.98284          39025   338            366            4489           327            33505          1.8288743e-12
       100   127.1462           39439   339            366            4619           337            33778          1.8602447e-12
       101   130.2456           39848   340            366            4733           355            34054          1.8921936e-12
       102   133.42759          40293   340            366            4847           377            34363          1.9246286e-12
       103   136.63046          40689   340            366            4960           401            34622          1.9569318e-12
       104   139.89127          41113   340            366            5065           431            34911          1.9894016e-12
       105   143.2034           41512   340            366            5166           460            35180          2.0217908e-12
       106   146.57595          41931   340            366            5269           487            35469          2.0541671e-12
       107   150.00092          42345   340            366            5378           520            35741          2.0866827e-12
       108   153.48435          42772   340            366            5497           546            36023          2.1201017e-12
       109   157.03112          43198   340            366            5603           573            36316          2.1543758e-12
       110   160.73783          43608   340            366            5713           609            36580          2.1894308e-12
       111   164.37378          44044   340            366            5815           656            36867          2.2252751e-12
       112   168.07488          44458   340            366            5925           699            37128          2.2620562e-12
       113   171.83466          44898   340            366            6034           746            37412          2.2993586e-12
       114   175.66893          45314   340            366            6126           792            37690          2.337217e-12 
       115   179.56266          45729   340            366            6226           846            37951          2.3755765e-12
       116   183.52274          46169   340            366            6340           902            38221          2.4150387e-12
       117   187.55716          46623   340            366            6463           944            38510          2.4546188e-12
       118   191.66738          47049   340            366            6564           1008           38771          2.4951512e-12
       119   195.85079          47480   340            366            6664           1061           39049          2.5362844e-12
       120   200.22897          47930   340            366            6800           1109           39315          2.5791699e-12
       121   204.55072          48398   340            366            6944           1161           39587          2.6248041e-12
       122   208.94301          48836   340            366            7073           1222           39835          2.6723685e-12
       123   213.41039          49337   340            366            7237           1260           40134          2.7219128e-12
       124   217.94876          49787   340            366            7387           1317           40377          2.7724222e-12
       125   222.56733          50238   340            366            7521           1366           40645          2.8237913e-12
       126   227.2623           50719   340            365            7675           1426           40913          2.876253e-12 
       127   232.05858          51194   340            365            7846           1479           41164          2.9303365e-12
       128   236.93565          51704   339            365            8014           1543           41443          2.9866792e-12
       129   241.90294          52186   339            365            8192           1599           41691          3.0452344e-12
       130   247.09433          52697   339            365            8408           1639           41946          3.1076138e-12
       131   252.28119          53211   339            365            8604           1681           42222          3.1727366e-12
       132   257.58674          53726   339            365            8824           1735           42463          3.2410682e-12
       133   262.98316          54268   339            365            9072           1773           42719          3.3128813e-12
       134   268.52494          54811   339            365            9317           1811           42979          3.3868345e-12
       135   274.14514          55352   339            365            9578           1848           43222          3.4638062e-12
       136   279.89688          55924   339            365            9840           1893           43487          3.5443921e-12
       137   285.75365          56492   338            365            10129          1937           43723          3.6306502e-12
       138   291.77288          57099   337            365            10429          1981           43987          3.7243814e-12
       139   297.9394           57707   337            365            10734          2039           44232          3.8262943e-12
       140   304.4015           58333   337            365            11070          2083           44478          3.9374993e-12
       141   310.90259          58995   337            365            11432          2127           44734          4.0566954e-12
       142   317.58461          59692   337            365            11839          2167           44984          4.188014e-12 
       143   324.40908          60398   337            365            12270          2214           45212          4.3228754e-12
       144   331.40731          61088   337            365            12658          2263           45465          4.4581084e-12
       145   338.61568          61839   337            365            13090          2327           45720          4.5986316e-12
       146   345.95498          62563   337            365            13528          2388           45945          4.7349568e-12
       147   353.44441          63219   335            365            13869          2461           46189          4.8724061e-12
       148   361.09079          63980   335            364            14306          2546           46429          5.0121472e-12
       149   368.86871          64712   335            364            14744          2612           46657          5.1594114e-12
       150   376.95338          65496   334            364            15188          2706           46904          5.3214283e-12
       151   385.0099           66275   334            363            15668          2772           47138          5.4620119e-12
       152   393.22407          67061   334            361            16160          2841           47365          5.6156364e-12
       153   401.51835          67838   334            361            16631          2913           47599          5.7700406e-12
       154   410.03421          68624   334            361            17116          2974           47839          5.9265799e-12
       155   418.60722          69414   334            361            17612          3060           48047          6.0905043e-12
       156   427.25445          70280   334            361            18165          3143           48277          6.2555408e-12
       157   436.06867          71113   334            360            18694          3245           48480          6.4313631e-12
       158   444.97001          71961   334            359            19218          3346           48704          6.6145592e-12
       159   453.88825          72892   334            359            19837          3438           48924          6.7914221e-12
       160   463.04483          73741   333            358            20407          3517           49126          6.9681181e-12
       161   472.11723          74616   333            358            20997          3596           49332          7.1554096e-12
       162   481.31665          75494   333            358            21575          3682           49546          7.3436676e-12
       163   490.55141          76411   333            357            22223          3773           49725          7.5356475e-12
       164   499.86066          77323   333            357            22851          3869           49913          7.7424741e-12
       165   509.24733          78233   332            357            23466          3987           50091          7.9448463e-12
       166   518.63481          79177   332            356            24096          4103           50290          8.1504825e-12
       167   528.08787          80170   332            356            24800          4250           50432          8.3754612e-12
       168   537.61304          81120   331            355            25435          4409           50590          8.5773612e-12
       169   547.151            82006   331            355            26005          4564           50751          8.7665806e-12
       170   556.93906          82958   331            352            26653          4723           50899          8.9759237e-12
       171   566.56213          83908   331            352            27280          4917           51028          9.1940806e-12
       172   576.24731          84872   331            351            27907          5113           51170          9.4075518e-12
       173   586.00202          85839   330            351            28538          5327           51293          9.6075339e-12
       174   595.80663          86832   328            350            29198          5541           51415          9.8234136e-12
       175   605.67065          87679   328            348            29709          5783           51511          1.0021044e-11
       176   615.59455          88594   328            348            30252          6049           51617          1.0220635e-11
       177   625.56789          89564   328            347            30842          6310           51737          1.0403926e-11
       178   635.58233          90474   328            347            31412          6567           51820          1.0576878e-11
       179   645.6441           91274   328            346            31869          6827           51904          1.0750765e-11
       180   655.98933          92111   328            344            32369          7082           51988          1.0912926e-11
       181   666.10123          92954   324            341            32892          7334           52063          1.1068036e-11
       182   676.2657           93723   323            336            33354          7571           52139          1.1196828e-11
       183   686.41294          94478   322            333            33810          7812           52201          1.1317206e-11
       184   696.60602          95156   321            331            34219          8027           52258          1.140132e-11 
       185   706.86052          95895   321            327            34667          8250           52330          1.1496437e-11
       186   717.17029          96581   321            322            35078          8474           52386          1.1601456e-11
       187   727.51361          97231   321            321            35462          8678           52449          1.1668324e-11
       188   737.8925           97835   320            316            35802          8900           52497          1.1735722e-11
       189   748.31866          98522   317            311            36255          9081           52558          1.1823257e-11
       190   759.02667          99176   315            306            36679          9272           52604          1.1869261e-11
       191   769.55901          99746   310            301            37017          9470           52648          1.1918232e-11
       192   780.19137         100407   310            297            37413          9693           52694          1.1969042e-11
       193   790.83171         100855   308            293            37587          9928           52739          1.1982197e-11
       194   801.48554         101377   302            292            37837          10175          52771          1.2019292e-11
       195   812.2088          102000   298            285            38155          10450          52812          1.2050556e-11
       196   822.97948         102469   291            279            38300          10758          52841          1.2067712e-11
       197   833.74351         103070   288            271            38576          11055          52880          1.2104371e-11
       198   844.61392         103487   283            262            38645          11363          52934          1.2098516e-11
       199   855.5615          104005   275            253            38822          11681          52974          1.2105912e-11
       200   866.75935         104464   273            247            38942          11991          53011          1.2099213e-11
       201   877.72135         104880   268            236            39008          12302          53066          1.2096058e-11
       202   888.7537          105362   265            230            39124          12635          53108          1.2082608e-11
       203   899.83662         105876   254            219            39286          12970          53147          1.2108714e-11
       204   910.96651         106361   251            208            39431          13289          53182          1.2109612e-11
       205   922.12014         106751   244            202            39478          13601          53226          1.2091015e-11
       206   933.30619         107196   236            190            39571          13936          53263          1.2096011e-11
       207   944.54829         107660   227            185            39721          14231          53296          1.209881e-11 
       208   955.84889         108073   220            175            39746          14598          53334          1.2104165e-11
       209   967.22865         108594   213            163            39919          14922          53377          1.2100239e-11
       210   978.87605         108979   208            157            39949          15238          53427          1.2081052e-11
       211   990.28218         109335   199            144            39955          15581          53456          1.2052984e-11
       212   1001.7544         109771   191            131            40052          15897          53500          1.2057836e-11
       213   1013.2405         110223   179            123            40157          16221          53543          1.2039335e-11
       214   1024.7686         110609   171            110            40190          16564          53574          1.2049785e-11
       215   1036.3499         111088   159            103            40318          16894          53614          1.2045321e-11
       216   1047.9953         111507   151            93             40368          17247          53648          1.2046989e-11
       217   1059.7054         111921   144            85             40442          17563          53687          1.2051927e-11
       218   1071.4516         112327   137            78             40525          17865          53722          1.2044211e-11
       219   1083.2295         112694   133            77             40532          18187          53765          1.2028684e-11
       220   1095.3177         113127   121            69             40641          18495          53801          1.2024038e-11
       221   1107.2033         113547   114            67             40706          18803          53857          1.2012443e-11
       222   1119.1746         113909   107            63             40742          19111          53886          1.1987256e-11
       223   1131.1526         114261   104            57             40738          19444          53918          1.1987707e-11
       224   1143.1481         114592   95             56             40699          19786          53956          1.1970086e-11
       225   1155.1856         115048   93             49             40769          20141          53996          1.1965011e-11
       226   1167.2923         115458   86             45             40810          20481          54036          1.196887e-11 
       227   1179.4693         115838   81             42             40808          20844          54063          1.1985039e-11
       228   1191.6723         116267   75             41             40824          21226          54101          1.1986017e-11
       229   1203.9109         116685   70             40             40845          21592          54138          1.198626e-11 
       230   1216.4348         117004   66             36             40774          21959          54169          1.198376e-11 
       231   1228.7669         117406   60             32             40751          22368          54195          1.1977223e-11
       232   1241.1683         117695   59             30             40615          22766          54225          1.1972061e-11
       233   1253.6148         118090   58             28             40546          23200          54258          1.1956149e-11
       234   1266.1248         118508   57             27             40464          23675          54285          1.1969744e-11
       235   1278.6886         118887   57             25             40402          24085          54318          1.1971183e-11
       236   1291.2849         119231   52             25             40241          24562          54351          1.1968969e-11
       237   1303.9172         119588   49             22             40109          25032          54376          1.1981233e-11
       238   1316.6322         119940   43             19             39984          25491          54403          1.1971696e-11
       239   1329.3575         120375   42             17             39896          25994          54426          1.1986384e-11
       240   1342.4292         120692   40             17             39761          26418          54456          1.1977395e-11
       241   1355.2878         121051   40             17             39650          26867          54477          1.1978183e-11
       242   1368.1689         121382   40             17             39466          27347          54512          1.198251e-11 
       243   1381.0699         121700   39             17             39295          27818          54531          1.1988072e-11
       244   1393.9843         122086   38             17             39182          28284          54565          1.1994224e-11
       245   1406.887          122473   38             17             39050          28782          54586          1.199157e-11 
       246   1419.8445         122820   36             16             38870          29287          54611          1.2001137e-11
       247   1432.8523         123044   34             16             38581          29778          54635          1.2002403e-11
       248   1445.9065         123452   34             16             38475          30269          54658          1.201998e-11 
       249   1459.0023         123793   32             16             38281          30778          54686          1.2012504e-11
       250   1472.4349         124122   32             15             38108          31261          54706          1.2004551e-11
       251   1485.6769         124562   32             14             38067          31714          54735          1.203526e-11 
       252   1498.9254         124866   32             14             37895          32173          54752          1.203574e-11 
       253   1512.2224         125203   31             14             37756          32621          54781          1.2045824e-11
       254   1525.5867         125486   31             14             37558          33079          54804          1.2052511e-11
       255   1538.899          125809   31             14             37408          33530          54826          1.2052008e-11
       256   1552.2422         126259   31             14             37404          33956          54854          1.2063642e-11
       257   1565.6175         126541   31             14             37269          34352          54875          1.2063396e-11
       258   1579.1705         126867   31             14             37178          34743          54901          1.2063396e-11
       259   1592.6402         127193   31             14             37093          35132          54923          1.211017e-11 
       260   1606.4361         127524   31             14             37015          35515          54949          1.2111728e-11
       261   1620.0085         127912   31             14             37019          35877          54971          1.2137865e-11
       262   1633.6479         128319   31             14             36997          36281          54996          1.2146406e-11
       263   1647.3376         128669   31             14             36935          36668          55021          1.2146177e-11
       264   1661.0736         128952   31             14             36816          37049          55042          1.2169173e-11
       265   1674.9417         129165   31             14             36645          37406          55069          1.2152484e-11
       266   1688.8627         129571   31             14             36641          37794          55091          1.2179363e-11
       267   1702.7742         129956   31             14             36650          38141          55120          1.2189697e-11
       268   1716.7807         130300   31             14             36566          38548          55141          1.2199966e-11
       269   1730.9427         130618   31             14             36502          38906          55165          1.2212155e-11
       270   1745.3532         130903   31             14             36439          39224          55195          1.2232481e-11
       271   1759.5404         131221   31             14             36408          39553          55215          1.222659e-11 
       272   1773.748          131532   31             14             36379          39864          55244          1.2239805e-11
       273   1787.9703         131944   31             14             36423          40212          55264          1.2264828e-11
       274   1802.3444         132237   31             14             36368          40533          55291          1.2250768e-11
       275   1816.658          132550   31             14             36343          40852          55310          1.2285268e-11
       276   1831.0581         132832   31             14             36219          41227          55341          1.2284121e-11
       277   1845.5569         133197   31             14             36178          41614          55360          1.2298321e-11
       278   1860.1126         133494   31             14             36102          41957          55390          1.2274857e-11
       279   1874.757          133857   31             14             36095          42310          55407          1.2283771e-11
       280   1889.7799         134151   31             14             36040          42631          55435          1.2282964e-11
       281   1904.313          134451   31             14             36016          42934          55456          1.2312765e-11
       282   1918.9556         134768   31             14             35994          43248          55481          1.2320841e-11
       283   1933.5834         135124   31             14             35949          43624          55506          1.232861e-11 
       284   1948.3792         135475   30             14             35967          43933          55531          1.2357159e-11
       285   1963.191          135849   30             14             36007          44245          55553          1.2364287e-11
       286   1978.1073         136157   29             14             35977          44558          55579          1.2387572e-11
       287   1992.9723         136428   29             14             35914          44870          55601          1.2387318e-11
       288   2007.8879         136781   29             14             35954          45158          55626          1.2416953e-11
       289   2022.9606         137102   28             14             35940          45469          55651          1.2429618e-11
       290   2038.3183         137449   28             14             35958          45777          55672          1.2415807e-11
       291   2053.4222         137806   28             14             35955          46110          55699          1.2455218e-11
       292   2068.6584         138151   28             14             35978          46414          55717          1.2471503e-11
       293   2083.9271         138481   28             14             35988          46710          55741          1.2484001e-11
       294   2099.2812         138714   28             14             35854          47051          55767          1.2483501e-11
       295   2114.6662         139051   28             14             35852          47369          55788          1.2493409e-11
       296   2130.1033         139313   28             14             35766          47692          55813          1.2491523e-11
       297   2145.5468         139672   28             14             35790          48004          55836          1.2491026e-11
       298   2161.0534         140047   28             14             35804          48342          55859          1.2503348e-11
       299   2176.5121         140256   28             14             35694          48638          55882          1.2513718e-11
       300   2192.4049         140590   28             14             35716          48930          55902          1.2529624e-11
       301   2207.8687         140913   28             14             35685          49256          55930          1.2537601e-11
       302   2223.4098         141305   28             14             35769          49546          55948          1.256791e-11 
       303   2238.9738         141637   28             14             35758          49861          55976          1.2566331e-11
       304   2254.5902         141873   28             14             35674          50159          55998          1.2576854e-11
       305   2270.2692         142154   28             14             35614          50476          56022          1.2559311e-11
       306   2285.9334         142500   28             14             35653          50759          56046          1.2602514e-11
       307   2301.6444         142850   28             14             35659          51078          56071          1.2620881e-11
       308   2317.416          143195   28             14             35665          51391          56097          1.2626442e-11
       309   2333.2366         143432   28             14             35582          51695          56113          1.2619454e-11
       310   2349.4883         143748   28             14             35551          52016          56139          1.2609428e-11
       311   2365.5149         144079   28             14             35559          52321          56157          1.2649026e-11
       312   2381.5151         144363   28             14             35528          52605          56188          1.2670825e-11
       313   2397.5859         144765   28             14             35620          52897          56206          1.2677872e-11
       314   2413.6728         145038   28             14             35589          53174          56233          1.2674698e-11
       315   2429.8972         145341   28             14             35568          53479          56252          1.2680545e-11
       316   2446.0765         145636   28             14             35530          53789          56275          1.2683738e-11
       317   2462.3263         145922   28             14             35506          54074          56300          1.2709212e-11
       318   2478.6146         146231   28             14             35495          54367          56327          1.271754e-11 
       319   2494.9583         146628   28             14             35553          54687          56346          1.2737739e-11
       320   2511.6514         146892   28             14             35491          54986          56373          1.2729667e-11
Loop time of 2511.65 on 16 procs for 320 steps with 146892 atoms

98.4% CPU use with 16 MPI tasks x 1 OpenMP threads

MPI task timing breakdown:
Section |  min time  |  avg time  |  max time  |%varavg| %total
---------------------------------------------------------------
Pair    | 548.77     | 662.31     | 871.51     | 357.2 | 26.37
Neigh   | 428.87     | 545.32     | 895.85     | 598.0 | 21.71
Comm    | 218.15     | 259.58     | 309.38     | 171.3 | 10.34
Output  | 15.504     | 15.504     | 15.504     |   0.0 |  0.62
Modify  | 421.1      | 1016.6     | 1259.4     | 769.4 | 40.47
Other   |            | 12.35      |            |       |  0.49

Nlocal:        9180.75 ave       13956 max        7867 min
Histogram: 10 1 1 2 0 0 0 0 0 2
Nghost:        7111.19 ave        9516 max        6080 min
Histogram: 7 2 1 2 0 0 2 0 0 2
Neighs:        90707.9 ave      106615 max       81983 min
Histogram: 1 5 4 1 0 2 1 0 1 1

Total # of neighbors = 1451326
Ave neighs/atom = 9.8802249
Neighbor list builds = 27927
Dangerous builds = 27607

Total wall time: 0:42:16
