LAMMPS (23 Jun 2022 - Update 4)
  using 1 OpenMP thread(s) per MPI task
package omp 0
using multi-threaded neighbor list subroutines
#-----------------------------------------------------------------------------#
#                NUFEB Simulation: Heterotrophic Biofilm Growth               #
#-----------------------------------------------------------------------------#


#-----------------------------System Settings---------------------------------#

units si                                    # using si units (m, s, kg)
atom_style      coccus                      # using nufeb coccus atom style
atom_modify     map array sort 10 0         # map array - find atoms using indices
		                            # sort every 10

boundary        pp pp ff                    # periodic boundaries in x and y
                                            # fixed boundary in z

newton          off                         # forces between local and ghost
                                            # atoms are computed in each
					     # processor without communication

processors      * * 1                       # processor grid

comm_modify     vel yes                     # communicate velocities for ghost atoms

read_data       atom_ch.in	             # read atom.in file which defines domain size
Reading data file ...
  orthogonal box = (0 0 0) to (6e-05 6e-05 6e-05)
  4 by 4 by 1 MPI processor grid
  reading atoms ...
  150 atoms
  read_data CPU = 0.012 seconds
                                            # and initial atoms


#--------------------Microbes and Functional Groups-------------------------#

group           CROSS1   type 1               # assign type 1,2 atoms to CROSS group
50 atoms in group CROSS1
group           CROSS2   type 2
50 atoms in group CROSS2
group		CHEATER  type 3
50 atoms in group CHEATER
group           dead     type 4
0 atoms in group dead
group		EPS	 type 5
0 atoms in group EPS

neighbor        5e-7 bin                   # setting neighbour skin distance and style

neigh_modify    check yes                  # rebuild neighbour list if any atom
                                           # had moved more than half the skin distance


#--------------------------Mesh Grid and Substrates--------------------------#

# defining grid sytle, substrate names, and grid size
grid_style      nufeb/chemostat 3 sub metab1 metab2 5e-6

# set diffusion boundary conditions and initial concentrations (liquid:kg/m3)
grid_modify     set sub      pp pp nd  1.8e-4
No /omp style for force computation currently active
grid_modify     set metab1   pp pp nd  1e-4
No /omp style for force computation currently active
grid_modify     set metab2   pp pp nd  1e-4
No /omp style for force computation currently active


#--------------------------Biological Processes-------------------------------#

# heterotrophs growth
fix growth_cross1 CROSS1 nufeb/growth/cross1 sub 3.5e-5 metab2 4e-3 metab1 growth 0.009 yield 0.6 decay 2.6e-6 metab1_exp 20 epsyield 0.12 epsdens 30

fix growth_cross2 CROSS2 nufeb/growth/cross2 sub 3.5e-5 metab1 4e-3 metab2 growth 0.009 yield 0.6 decay 2.6e-6 metab2_exp 20 epsyield 0.12 epsdens 30

fix growth_cheater CHEATER nufeb/growth/cheater sub 3.5e-5 metab1 1e-3 metab2 1e-3 growth 0.009 yield 0.6 decay 2.6e-6

# heterotrophs division, division diameter: 1.36e-6
fix div1 CROSS1 nufeb/division/coccus 1.36e-6 2504
fix div2 CROSS2 nufeb/division/coccus 1.36e-6 9710
fix div3 CHEATER nufeb/division/coccus 1.36e-6 21718

fix death1 CROSS1 nufeb/death/diameter dead 5.43e-7
fix death2 CROSS2 nufeb/death/diameter dead 5.43e-7
fix death3 CHEATER nufeb/death/diameter dead 5.43e-7

# EPS secretion from heterotrophs
fix eps1 CROSS1 nufeb/eps_secretion 5 EPS 1.1 30 38528
fix eps2 CROSS2 nufeb/eps_secretion 5 EPS 1.1 30 60140

#---------------------------Physical Processes--------------------------------#

pair_style  gran/hooke/history 1e-4 NULL 1e-5 NULL 0.0 0    # pairwise interaction
pair_coeff  * *                                             # between atoms

# pairwise interaction between z-wall and atoms
fix wall all wall/gran hooke/history 1e-3 NULL 1e-4 NULL 0 0 zplane 0.0 1e-04

fix vis all viscous 1e-5                                    # viscous damping force

fix grav all gravity 9.81 vector 0.0 0.0 -1.0

fix nve all nve/limit 1e-7                                  # NVE integration with
                                                            # maximum distance limit


#---------------------------Post-Physical Processes---------------------------#

fix coeff_sub all nufeb/diffusion_coeff sub ratio 0.8       # defining diffusion coeff in the biofilm
fix coeff_metab1 all nufeb/diffusion_coeff metab1 ratio 0.8    # region is 80% of the value in liquid
fix coeff_metab2 all nufeb/diffusion_coeff metab2 ratio 0.8

#---------------------------Chemical Processes---------------------------------#

fix diff_sub all nufeb/diffusion_reaction sub 1e-9        # diffusion reaction for updating
fix diff_metab1 all nufeb/diffusion_reaction metab1 4e-9     # distribusion of substrate concentration
fix diff_metab2 all nufeb/diffusion_reaction metab2 4e-9

#--------------------------Computations and Outputs----------------------------#

variable mass equal "mass(all)"                             # total mass
variable ncross1 equal "count(CROSS1)"                      # total # of CROSS1
variable ncross2 equal "count(CROSS2)"                      # total # of CROSS2
variable ncheater equal "count(CHEATER)"
variable ndead equal "count(dead)"
variable neps equal "count(EPS)"

shell mkdir vtk_EPS_ch                                            # dump vtk files to /vtk folder
dump du1 all vtk 10 vtk_EPS_ch/dump*.vtu id type diameter         # require build NUFEB with vtk option
dump du2 all grid/vtk 10 vtk_EPS_ch/dump_%_*.vti con rea den gro

#dump du3 all movie 10 movie.avi type diameter view 80 60    # dump video
#dump_modify du3 acolor 1 blue acolor 2 lightgrey framerate 10


                                                            # dump hdf5 files to /hdf5 folder
#shell mkdir hdf5                                           # require build NUFEB with hdf5 option
#dump du3 all nufeb/hdf5 10 dump.h5 id type x y z vx vy vz fx fy fz radius conc reac

thermo_style custom step cpu atoms v_ncross1 v_ncross2 v_ncheater v_ndead v_neps v_mass     # screen and log outputs
thermo 1
thermo_modify   lost ignore

#-----------------------------------Run----------------------------------------#

# issue run command, define timesteps for physical (pairdt) and chemical (diffdt) processes
run_style nufeb diffdt 1e-4 difftol 1e-6 pairdt 1e-2 pairtol 1 pairmax 1000 diffmax 5000

timestep 12000                                               # define biological timesteps (1000s)

run 320                                                    # growing biofilm for 900x1000s
Generated 0 of 6 mixed pair_coeff terms from geometric mixing rule
Last active /omp style is pair_style gran/hooke/history/omp
Neighbor list info ...
  update every 1 steps, delay 10 steps, check yes
  max neighbors/atom: 2000, page size: 100000
  master list distance cutoff = 2.49e-06
  ghost atom cutoff = 2.49e-06
  binsize = 1.245e-06, bins = 49 49 49
  1 neighbor lists, perpetual/occasional/extra = 1 0 0
  (1) pair gran/hooke/history/omp, perpetual
      attributes: half, newton off, size, history, omp
      pair build: half/size/bin/newtoff/omp
      stencil: full/bin/3d
      bin: standard
Per MPI rank memory allocation (min/avg/max) = 11.02 | 11.02 | 11.02 Mbytes
   Step          CPU          Atoms      v_ncross1      v_ncross2      v_ncheater      v_ndead         v_neps         v_mass    
         0   0                    150   50             50             50             0              0              1.3295396e-13
         1   0.39532105           432   90             85             86             0              171            1.7273247e-13
         2   0.77425385           795   121            127            135            0              412            1.9558689e-13
         3   1.1048053           1122   128            145            181            0              668            2.1456773e-13
         4   1.4142819           1426   135            153            200            0              938            2.3253024e-13
         5   1.6442484           1736   141            157            220            0              1218           2.5010954e-13
         6   1.8134935           2060   144            170            237            0              1509           2.6766442e-13
         7   1.9768614           2395   151            177            257            0              1810           2.8491214e-13
         8   2.1265901           2744   162            185            276            0              2121           3.0156321e-13
         9   2.28722             3114   171            197            294            0              2452           3.1789326e-13
        10   5.9976709           3480   174            204            310            0              2792           3.3398479e-13
        11   6.1297006           3867   180            211            340            0              3136           3.4973595e-13
        12   6.2699195           4247   184            217            361            0              3485           3.6528199e-13
        13   6.4065572           4629   188            221            375            0              3845           3.8064914e-13
        14   6.5358409           4998   194            223            387            0              4194           3.9574662e-13
        15   6.6578698           5396   197            226            412            0              4561           4.10644e-13  
        16   6.7705333           5776   202            229            435            0              4910           4.2494832e-13
        17   6.8676744           6150   207            234            452            0              5257           4.3882042e-13
        18   6.9739317           6535   210            240            466            0              5619           4.522928e-13 
        19   7.0763463           6947   220            249            483            0              5995           4.6508278e-13
        20   21.376942           7352   227            255            500            0              6370           4.7766612e-13
        21   21.466603           7758   232            260            520            0              6746           4.8978313e-13
        22   21.575877           8162   236            264            531            0              7131           5.0147118e-13
        23   21.683902           8584   238            270            556            0              7520           5.1284382e-13
        24   21.794411           8966   240            271            575            0              7880           5.2397819e-13
        25   21.911379           9385   242            273            599            0              8271           5.3507679e-13
        26   22.036892           9760   244            278            618            0              8620           5.4571173e-13
        27   22.181453          10166   246            283            630            0              9007           5.5632489e-13
        28   22.339359          10568   251            289            643            0              9385           5.6688272e-13
        29   22.490013          10974   253            290            663            0              9768           5.7746507e-13
        30   22.711325          11352   257            294            676            0              10125          5.8800131e-13
        31   22.896092          11772   263            295            691            0              10523          5.9881312e-13
        32   23.071852          12158   266            299            712            0              10881          6.0934212e-13
        33   23.267108          12564   267            302            734            0              11261          6.1963498e-13
        34   23.467329          12939   269            305            751            0              11614          6.2947333e-13
        35   23.67013           13331   269            308            767            0              11987          6.3955007e-13
        36   23.865971          13729   273            312            790            0              12354          6.4961616e-13
        37   24.107696          14139   275            314            815            0              12735          6.5972875e-13
        38   24.338167          14525   279            315            837            0              13094          6.6908149e-13
        39   24.724092          14937   284            317            859            0              13477          6.7832276e-13
        40   25.095998          15324   288            320            871            0              13845          6.8746853e-13
        41   25.524019          15708   288            321            889            0              14210          6.9608818e-13
        42   26.039804          16095   289            323            903            0              14580          7.0459413e-13
        43   26.795933          16507   292            326            927            0              14962          7.1320015e-13
        44   27.463234          16903   295            326            940            0              15342          7.2137036e-13
        45   28.395703          17307   300            327            964            0              15716          7.2960432e-13
        46   29.351554          17712   303            328            986            0              16095          7.3800195e-13
        47   30.410128          18098   305            328            1008           0              16457          7.4645195e-13
        48   31.481177          18510   307            329            1024           0              16850          7.5551872e-13
        49   32.580734          18903   309            330            1045           0              17219          7.6505958e-13
        50   33.723431          19298   310            331            1072           0              17585          7.7539294e-13
        51   34.880236          19700   314            333            1094           0              17959          7.8594756e-13
        52   36.007948          20096   317            333            1121           1              18324          7.9716166e-13
        53   37.15339           20494   317            333            1150           1              18693          8.08546e-13  
        54   38.333133          20880   318            334            1181           1              19046          8.1989254e-13
        55   39.514528          21282   319            335            1210           1              19417          8.3175925e-13
        56   40.702755          21679   319            336            1246           1              19777          8.4371611e-13
        57   41.907934          22087   321            338            1276           2              20150          8.5559936e-13
        58   43.173975          22453   322            340            1311           2              20478          8.6717327e-13
        59   44.406801          22861   322            341            1338           4              20856          8.7911891e-13
        60   45.71898           23264   325            344            1376           5              21214          8.9068379e-13
        61   47.031696          23652   326            344            1411           9              21562          9.0182329e-13
        62   48.367254          24052   326            345            1440           12             21929          9.1310874e-13
        63   49.776258          24438   328            346            1469           15             22280          9.2461701e-13
        64   51.23893           24850   328            346            1508           18             22650          9.3638545e-13
        65   52.758194          25234   330            347            1541           23             22993          9.49169e-13  
        66   54.346852          25634   331            348            1578           28             23349          9.6252885e-13
        67   55.977361          26018   331            350            1618           30             23689          9.769043e-13 
        68   57.612539          26408   331            350            1657           35             24035          9.925301e-13 
        69   59.269892          26812   334            351            1706           43             24378          1.0089139e-12
        70   61.115761          27204   334            354            1756           48             24712          1.0256921e-12
        71   62.81088           27596   334            355            1803           54             25050          1.042882e-12 
        72   64.470742          27981   334            355            1849           62             25381          1.0602559e-12
        73   66.160458          28393   334            356            1896           67             25740          1.0776099e-12
        74   67.846001          28752   335            356            1954           77             26030          1.0945545e-12
        75   69.613675          29169   335            356            2009           84             26385          1.1114461e-12
        76   71.418395          29538   336            357            2060           90             26695          1.1282564e-12
        77   73.278688          29940   336            357            2110           100            27037          1.1450726e-12
        78   75.21496           30297   336            357            2156           107            27341          1.1622433e-12
        79   77.200285          30698   337            357            2216           114            27674          1.180228e-12 
        80   79.304174          31078   338            357            2287           125            27971          1.198824e-12 
        81   81.325464          31472   339            357            2334           134            28308          1.2184956e-12
        82   83.403191          31832   339            357            2388           147            28601          1.2379856e-12
        83   85.510483          32230   339            357            2450           160            28924          1.2582244e-12
        84   87.584276          32606   340            357            2507           171            29231          1.2788829e-12
        85   89.718532          32991   340            358            2562           188            29543          1.2990972e-12
        86   91.88265           33379   340            358            2633           199            29849          1.3193728e-12
        87   94.100313          33774   340            358            2701           219            30156          1.3394643e-12
        88   96.367338          34139   340            358            2757           232            30452          1.3601913e-12
        89   98.635505          34516   340            358            2828           245            30745          1.3809567e-12
        90   101.0566           34920   341            358            2891           260            31070          1.4019985e-12
        91   103.42067          35273   342            358            2946           277            31350          1.4230236e-12
        92   105.85338          35676   342            359            3032           284            31659          1.444604e-12 
        93   108.31243          36047   342            359            3120           293            31933          1.4670713e-12
        94   110.79271          36422   342            359            3183           300            32238          1.4901511e-12
        95   113.2995           36800   342            359            3271           308            32520          1.5135283e-12
        96   115.84134          37197   343            359            3365           317            32813          1.5373166e-12
        97   118.41877          37570   343            359            3444           326            33098          1.560995e-12 
        98   121.04077          37966   344            359            3537           336            33390          1.5848477e-12
        99   123.65466          38345   344            359            3625           343            33674          1.6086724e-12
       100   126.38719          38726   344            359            3712           345            33966          1.63206e-12  
       101   129.10052          39108   344            359            3821           350            34234          1.6547787e-12
       102   131.90101          39482   344            360            3906           355            34517          1.6773237e-12
       103   134.69276          39866   344            360            3977           366            34819          1.6997889e-12
       104   137.57203          40224   344            360            4060           372            35088          1.7220959e-12
       105   140.47288          40629   344            360            4156           380            35389          1.7447583e-12
       106   143.4652           41005   344            361            4248           391            35661          1.7672197e-12
       107   146.49987          41390   344            361            4346           403            35936          1.7909499e-12
       108   149.58321          41782   344            362            4438           415            36223          1.8149466e-12
       109   152.72865          42163   344            362            4532           424            36501          1.8394462e-12
       110   156.00671          42538   344            362            4606           445            36781          1.8641197e-12
       111   159.24718          42947   345            362            4710           460            37070          1.8886421e-12
       112   162.53332          43307   345            362            4786           479            37335          1.9133832e-12
       113   165.88016          43714   345            362            4874           506            37627          1.9380082e-12
       114   169.27878          44092   345            363            4960           532            37892          1.9629812e-12
       115   172.72857          44460   345            364            5032           554            38165          1.988577e-12 
       116   176.21577          44834   345            364            5121           577            38427          2.0151694e-12
       117   179.76782          45254   345            364            5229           600            38716          2.0421865e-12
       118   183.40658          45634   345            364            5323           634            38968          2.0699221e-12
       119   187.10151          46042   344            364            5411           670            39253          2.0990562e-12
       120   190.96544          46421   344            364            5509           702            39502          2.1292706e-12
       121   194.75264          46830   344            364            5632           724            39766          2.1605102e-12
       122   198.60051          47241   344            364            5734           765            40034          2.1919556e-12
       123   202.49683          47633   344            364            5822           806            40297          2.2235249e-12
       124   206.42325          48010   344            364            5913           838            40551          2.2548836e-12
       125   210.41858          48436   344            364            6033           871            40824          2.2858892e-12
       126   214.48518          48844   344            364            6153           910            41073          2.3175114e-12
       127   218.60157          49262   343            364            6265           945            41345          2.3500315e-12
       128   222.78496          49657   343            364            6381           988            41581          2.383539e-12 
       129   227.03273          50078   342            364            6491           1034           41847          2.4184314e-12
       130   231.47209          50488   342            364            6608           1076           42098          2.4543227e-12
       131   235.87363          50899   342            364            6723           1107           42363          2.4910738e-12
       132   240.31449          51296   341            364            6843           1149           42599          2.5287476e-12
       133   244.88612          51724   341            364            6975           1194           42850          2.5671223e-12
       134   249.47093          52130   341            364            7086           1236           43103          2.6059357e-12
       135   254.11386          52551   341            364            7223           1284           43339          2.6448701e-12
       136   258.83481          52986   341            364            7368           1322           43591          2.6847345e-12
       137   263.63783          53412   341            364            7501           1373           43833          2.7260278e-12
       138   268.52042          53840   341            364            7641           1423           44071          2.7690139e-12
       139   273.50428          54278   341            364            7787           1464           44322          2.8143613e-12
       140   278.68132          54705   341            364            7947           1500           44553          2.8613116e-12
       141   283.82996          55160   341            364            8113           1535           44807          2.9100959e-12
       142   289.05222          55626   341            364            8294           1587           45040          2.9603136e-12
       143   294.34559          56064   341            364            8468           1633           45258          3.0113705e-12
       144   299.72848          56529   342            363            8614           1694           45516          3.0633885e-12
       145   305.20491          56999   342            363            8799           1761           45734          3.1174003e-12
       146   310.77979          57480   342            363            8985           1811           45979          3.1728916e-12
       147   316.41032          57933   342            362            9159           1865           46205          3.2310906e-12
       148   322.12694          58404   342            362            9354           1920           46426          3.2914122e-12
       149   327.93854          58922   341            362            9583           1977           46659          3.3547531e-12
       150   334.00555          59400   341            362            9791           2032           46874          3.4214055e-12
       151   340.01172          59904   341            362            10015          2079           47107          3.4911732e-12
       152   346.15105          60429   341            362            10250          2129           47347          3.5640634e-12
       153   352.38576          60954   340            362            10500          2189           47563          3.6404169e-12
       154   358.70594          61496   340            362            10764          2250           47780          3.7197653e-12
       155   365.15185          62072   339            362            11048          2307           48016          3.8041176e-12
       156   371.72722          62635   339            362            11325          2363           48246          3.8943511e-12
       157   378.41074          63215   339            362            11648          2413           48453          3.9900962e-12
       158   385.21005          63815   339            360            11945          2503           48668          4.0938005e-12
       159   392.13249          64460   339            360            12295          2563           48903          4.2086255e-12
       160   399.35503          65116   338            360            12665          2628           49125          4.333833e-12 
       161   406.59105          65782   338            359            13065          2691           49329          4.4681029e-12
       162   413.97676          66461   338            359            13448          2767           49549          4.6089529e-12
       163   421.54349          67216   338            359            13903          2836           49780          4.7505287e-12
       164   429.30019          67925   338            358            14333          2896           50000          4.8944361e-12
       165   437.18459          68581   337            358            14727          2948           50211          5.0363955e-12
       166   445.22936          69303   336            358            15168          3018           50423          5.1819139e-12
       167   453.40508          70070   336            358            15648          3090           50638          5.3238597e-12
       168   461.75115          70792   336            357            16064          3169           50866          5.4722592e-12
       169   470.20117          71532   336            357            16526          3251           51062          5.6185231e-12
       170   478.97971          72298   336            357            16989          3340           51276          5.7728804e-12
       171   487.74181          73059   336            357            17451          3417           51498          5.9169585e-12
       172   496.63541          73786   336            356            17917          3482           51695          6.0693047e-12
       173   505.61015          74550   335            354            18382          3578           51901          6.2216624e-12
       174   514.75123          75382   335            354            18906          3684           52103          6.3858966e-12
       175   524.0004           76222   333            354            19438          3785           52312          6.549739e-12 
       176   533.39736          77046   333            354            19966          3892           52501          6.7300125e-12
       177   542.8794           77851   331            354            20463          4015           52688          6.9059501e-12
       178   552.44919          78698   331            351            20996          4140           52880          7.0760028e-12
       179   562.09338          79587   330            349            21578          4258           53072          7.2650425e-12
       180   571.98915          80490   330            349            22159          4406           53246          7.4483719e-12
       181   581.75428          81348   326            349            22731          4528           53414          7.6437643e-12
       182   591.58271          82261   326            349            23330          4660           53596          7.8328512e-12
       183   601.46455          83179   326            347            23950          4794           53762          8.0273933e-12
       184   611.37798          84051   323            347            24536          4937           53908          8.2167365e-12
       185   621.33765          84975   323            346            25131          5116           54059          8.423193e-12 
       186   631.34185          85903   321            345            25729          5312           54196          8.6172524e-12
       187   641.39079          86805   320            342            26304          5488           54351          8.8188256e-12
       188   651.4916           87757   319            340            26973          5643           54482          9.030298e-12 
       189   661.63561          88658   319            339            27600          5785           54615          9.2306448e-12
       190   672.03297          89609   318            337            28269          5963           54722          9.431752e-12 
       191   682.26301          90513   318            336            28866          6159           54834          9.6366992e-12
       192   692.5787           91466   313            331            29496          6383           54943          9.8446454e-12
       193   702.90062          92327   310            329            29996          6636           55056          1.0022964e-11
       194   713.27305          93255   307            326            30561          6912           55149          1.0214652e-11
       195   723.6599           94149   304            321            31104          7176           55244          1.038621e-11 
       196   734.0964           95034   299            318            31631          7453           55333          1.0585562e-11
       197   744.58624          95890   297            316            32149          7723           55405          1.0746297e-11
       198   755.12445          96760   295            313            32656          8035           55461          1.094283e-11 
       199   765.69525          97567   291            311            33104          8325           55536          1.106437e-11 
       200   776.50067          98351   289            306            33509          8645           55602          1.1196168e-11
       201   787.11823          99132   285            301            33932          8937           55677          1.1337475e-11
       202   797.79396          99793   283            295            34224          9245           55746          1.1425534e-11
       203   808.50119         100586   282            291            34672          9537           55804          1.1556977e-11
       204   819.25244         101272   280            287            35028          9818           55859          1.1625191e-11
       205   830.02301         101960   275            282            35427          10069          55907          1.1722529e-11
       206   840.85734         102634   268            276            35837          10302          55951          1.1809467e-11
       207   851.73752         103212   262            266            36173          10516          55995          1.1865853e-11
       208   862.63693         103834   255            257            36617          10674          56031          1.1911535e-11
       209   873.54751         104397   251            245            36963          10871          56067          1.1954137e-11
       210   884.75805         105057   243            239            37418          11046          56111          1.2023222e-11
       211   895.75782         105574   239            234            37712          11236          56153          1.2050204e-11
       212   906.79525         106138   225            223            38032          11480          56178          1.2098232e-11
       213   917.90516         106722   218            213            38394          11691          56206          1.2125793e-11
       214   929.02876         107307   206            198            38715          11947          56241          1.2140586e-11
       215   940.12361         107735   196            193            38852          12223          56271          1.2153186e-11
       216   951.32674         108197   191            183            39008          12510          56305          1.2170008e-11
       217   962.56341         108630   180            171            39109          12827          56343          1.2166787e-11
       218   973.84993         109217   171            166            39354          13155          56371          1.2179787e-11
       219   985.1835          109751   165            159            39539          13486          56402          1.2200915e-11
       220   996.80684         110145   160            152            39551          13854          56428          1.2193617e-11
       221   1008.1948         110506   152            141            39575          14181          56457          1.2171176e-11
       222   1019.6878         110964   147            135            39674          14530          56478          1.2189348e-11
       223   1031.2404         111462   135            127            39806          14890          56504          1.21788e-11  
       224   1042.8577         111935   129            116            39888          15272          56530          1.2183367e-11
       225   1054.5003         112405   125            108            39930          15680          56562          1.216537e-11 
       226   1066.1006         112760   120            103            39903          16032          56602          1.2168244e-11
       227   1077.7042         113182   114            97             39931          16408          56632          1.2161566e-11
       228   1089.3549         113652   108            91             40052          16740          56661          1.2144765e-11
       229   1101.0796         114107   98             89             40145          17090          56685          1.2163462e-11
       230   1113.114          114465   91             78             40170          17408          56718          1.214087e-11 
       231   1124.9206         114845   78             70             40196          17754          56747          1.2123076e-11
       232   1136.7598         115237   73             68             40214          18105          56777          1.2113068e-11
       233   1148.6203         115697   66             66             40342          18423          56800          1.2123398e-11
       234   1160.5062         116098   58             58             40439          18717          56826          1.211332e-11 
       235   1172.4146         116544   54             51             40527          19061          56851          1.2110132e-11
       236   1184.3906         116919   54             44             40576          19366          56879          1.2104326e-11
       237   1196.4304         117320   52             40             40630          19693          56905          1.2109945e-11
       238   1208.5049         117674   47             38             40666          19994          56929          1.2090373e-11
       239   1220.6164         118086   45             37             40746          20306          56952          1.2088796e-11
       240   1233.0298         118457   43             31             40754          20653          56976          1.2079922e-11
       241   1245.2329         118889   40             29             40814          21006          57000          1.2085869e-11
       242   1257.4782         119208   38             29             40755          21365          57021          1.2070468e-11
       243   1269.8131         119590   37             28             40784          21696          57045          1.2059201e-11
       244   1282.173          119959   36             26             40803          22020          57074          1.2057862e-11
       245   1294.5883         120394   33             25             40869          22375          57092          1.2069362e-11
       246   1307.0654         120779   33             25             40860          22746          57115          1.2058748e-11
       247   1319.6086         121114   31             24             40833          23087          57139          1.2061824e-11
       248   1332.1683         121474   29             23             40815          23448          57159          1.2054635e-11
       249   1344.7863         121854   29             23             40825          23796          57181          1.2069417e-11
       250   1357.6901         122282   28             23             40842          24183          57206          1.2065207e-11
       251   1370.4012         122636   24             23             40767          24603          57219          1.2054479e-11
       252   1383.1854         122995   24             23             40661          25039          57248          1.2057329e-11
       253   1395.9451         123282   23             23             40487          25483          57266          1.2050945e-11
       254   1408.7088         123622   23             23             40386          25901          57289          1.2050627e-11
       255   1421.5403         124028   23             23             40317          26356          57309          1.2032645e-11
       256   1434.4178         124460   23             23             40279          26801          57334          1.2054755e-11
       257   1447.354          124801   22             21             40141          27265          57352          1.2054236e-11
       258   1460.3168         125110   21             21             39958          27733          57377          1.2061012e-11
       259   1473.3239         125416   21             21             39748          28233          57393          1.2065072e-11
       260   1486.6456         125886   21             21             39669          28757          57418          1.2073833e-11
       261   1499.6763         126195   21             21             39437          29279          57437          1.2084814e-11
       262   1512.779          126541   21             21             39290          29749          57460          1.2080401e-11
       263   1525.822          126932   21             21             39199          30213          57478          1.2081406e-11
       264   1539.0369         127302   21             21             39081          30674          57505          1.2091551e-11
       265   1552.286          127539   21             21             38835          31139          57523          1.208725e-11 
       266   1565.4438         127900   21             21             38664          31648          57546          1.211152e-11 
       267   1578.8152         128285   21             20             38562          32116          57566          1.2108213e-11
       268   1592.1212         128653   21             20             38402          32619          57591          1.2124123e-11
       269   1605.5423         128977   21             20             38235          33094          57607          1.2128736e-11
       270   1619.3228         129252   21             20             38022          33552          57637          1.2119549e-11
       271   1632.7225         129640   21             20             37908          34041          57650          1.2135959e-11
       272   1646.1723         129971   21             20             37752          34496          57682          1.2132751e-11
       273   1659.5968         130367   21             20             37693          34937          57696          1.2152821e-11
       274   1673.0287         130674   21             20             37547          35365          57721          1.216389e-11 
       275   1686.712          131040   20             19             37456          35806          57739          1.2197694e-11
       276   1700.4677         131303   20             19             37293          36209          57762          1.2168925e-11
       277   1714.1299         131662   20             19             37215          36623          57785          1.2188625e-11
       278   1727.7427         131989   20             19             37101          37044          57805          1.2199674e-11
       279   1741.4103         132320   20             19             37058          37398          57825          1.2221666e-11
       280   1755.3345         132681   20             19             37006          37788          57848          1.2234515e-11
       281   1769.0919         133016   20             19             36922          38188          57867          1.2242224e-11
       282   1782.9539         133377   20             19             36885          38561          57892          1.2233354e-11
       283   1796.9102         133630   20             19             36773          38905          57913          1.222207e-11 
       284   1810.7465         134003   20             19             36760          39268          57936          1.2246716e-11
       285   1824.6343         134259   20             19             36611          39653          57956          1.2251544e-11
       286   1838.4843         134599   20             19             36567          40014          57979          1.2268947e-11
       287   1852.4293         134977   20             19             36558          40382          57998          1.2287487e-11
       288   1866.4439         135308   20             19             36526          40722          58021          1.2290092e-11
       289   1880.4782         135673   20             19             36466          41127          58041          1.230966e-11 
       290   1895.0754         135976   19             19             36377          41498          58063          1.2310562e-11
       291   1909.2808         136318   19             19             36373          41824          58083          1.2336221e-11
       292   1923.5254         136603   19             19             36291          42169          58105          1.2334189e-11
       293   1937.7665         136961   19             19             36307          42492          58124          1.2348969e-11
       294   1952.0612         137244   19             19             36249          42810          58147          1.2352129e-11
       295   1966.4093         137525   19             19             36211          43110          58166          1.23587e-11  
       296   1980.743          137937   19             19             36273          43438          58188          1.2374809e-11
       297   1995.1427         138271   19             19             36242          43777          58214          1.238674e-11 
       298   2009.6284         138587   19             19             36210          44107          58232          1.2381568e-11
       299   2024.1778         138892   19             19             36178          44421          58255          1.2413364e-11
       300   2039.103          139191   19             19             36131          44746          58276          1.2417301e-11
       301   2053.7702         139544   19             19             36101          45107          58298          1.2425434e-11
       302   2068.455          139904   19             19             36092          45459          58315          1.2445932e-11
       303   2083.206          140228   19             19             36039          45810          58341          1.2460353e-11
       304   2097.9731         140513   19             19             36001          46116          58358          1.2455832e-11
       305   2112.7794         140881   19             19             36018          46440          58385          1.248049e-11 
       306   2127.7111         141131   19             19             35956          46735          58402          1.2456138e-11
       307   2142.6258         141431   19             19             35915          47052          58426          1.2484596e-11
       308   2157.6135         141648   19             19             35790          47374          58446          1.2474802e-11
       309   2172.6403         142107   19             19             35914          47687          58468          1.2508047e-11
       310   2187.9942         142406   19             19             35856          48022          58490          1.2517773e-11
       311   2203.1541         142758   19             19             35912          48297          58511          1.2533054e-11
       312   2218.3507         143062   19             19             35873          48620          58531          1.2529023e-11
       313   2233.6187         143296   19             19             35758          48946          58554          1.2532772e-11
       314   2248.9149         143668   19             19             35765          49290          58575          1.2575048e-11
       315   2264.2696         143967   19             19             35695          49636          58598          1.2551084e-11
       316   2279.676          144326   19             19             35716          49957          58615          1.2583465e-11
       317   2295.1318         144656   19             19             35734          50243          58641          1.2586432e-11
       318   2310.5759         144939   19             19             35693          50548          58660          1.2603856e-11
       319   2326.0748         145310   19             19             35736          50852          58684          1.2611252e-11
       320   2341.9993         145568   19             19             35683          51145          58702          1.2618827e-11
Loop time of 2342 on 16 procs for 320 steps with 145568 atoms

98.1% CPU use with 16 MPI tasks x 1 OpenMP threads

MPI task timing breakdown:
Section |  min time  |  avg time  |  max time  |%varavg| %total
---------------------------------------------------------------
Pair    | 531.74     | 609.03     | 812.28     | 310.7 | 26.00
Neigh   | 430.49     | 523.83     | 834.39     | 504.7 | 22.37
Comm    | 194.69     | 225.18     | 263.97     | 156.2 |  9.61
Output  | 23.509     | 23.509     | 23.51      |   0.0 |  1.00
Modify  | 403.32     | 948.79     | 1137.9     | 663.2 | 40.51
Other   |            | 11.66      |            |       |  0.50

Nlocal:           9098 ave       13463 max        7739 min
Histogram: 8 2 1 3 0 0 0 0 0 2
Nghost:        7015.56 ave        9076 max        5908 min
Histogram: 5 1 4 1 1 0 1 1 0 2
Neighs:        87803.9 ave      103105 max       82285 min
Histogram: 6 3 2 1 0 2 0 0 1 1

Total # of neighbors = 1404862
Ave neighs/atom = 9.6508985
Neighbor list builds = 28079
Dangerous builds = 27759

Total wall time: 0:39:02
