LAMMPS (23 Jun 2022 - Update 4)
  using 1 OpenMP thread(s) per MPI task
package omp 0
using multi-threaded neighbor list subroutines
#-----------------------------------------------------------------------------#
#                NUFEB Simulation: Heterotrophic Biofilm Growth               #
#-----------------------------------------------------------------------------#


#-----------------------------System Settings---------------------------------#

units si                                    # using si units (m, s, kg)
atom_style      coccus                      # using nufeb coccus atom style
atom_modify     map array sort 10 0         # map array - find atoms using indices
		                            # sort every 10

boundary        pp pp ff                    # periodic boundaries in x and y
                                            # fixed boundary in z

newton          off                         # forces between local and ghost
                                            # atoms are computed in each
					     # processor without communication

processors      * * 1                       # processor grid

comm_modify     vel yes                     # communicate velocities for ghost atoms

read_data       atom_ch.in	             # read atom.in file which defines domain size
Reading data file ...
  orthogonal box = (0 0 0) to (6e-05 6e-05 6e-05)
  4 by 4 by 1 MPI processor grid
  reading atoms ...
  150 atoms
  read_data CPU = 0.018 seconds
                                            # and initial atoms


#--------------------Microbes and Functional Groups-------------------------#

group           CROSS1   type 1               # assign type 1,2 atoms to CROSS group
50 atoms in group CROSS1
group           CROSS2   type 2
50 atoms in group CROSS2
group		CHEATER  type 3
50 atoms in group CHEATER
group           dead     type 4
0 atoms in group dead
group		EPS	 type 5
0 atoms in group EPS

neighbor        5e-7 bin                   # setting neighbour skin distance and style

neigh_modify    check yes                  # rebuild neighbour list if any atom
                                           # had moved more than half the skin distance


#--------------------------Mesh Grid and Substrates--------------------------#

# defining grid sytle, substrate names, and grid size
grid_style      nufeb/chemostat 3 sub metab1 metab2 5e-6

# set diffusion boundary conditions and initial concentrations (liquid:kg/m3)
grid_modify     set sub      pp pp nd  1.8e-4
No /omp style for force computation currently active
grid_modify     set metab1   pp pp nd  1e-4
No /omp style for force computation currently active
grid_modify     set metab2   pp pp nd  1e-4
No /omp style for force computation currently active


#--------------------------Biological Processes-------------------------------#

# heterotrophs growth
fix growth_cross1 CROSS1 nufeb/growth/cross1 sub 3.5e-5 metab2 4e-3 metab1 growth 0.009 yield 0.6 decay 2.6e-6 metab1_exp 20 epsyield 0.12 epsdens 30

fix growth_cross2 CROSS2 nufeb/growth/cross2 sub 3.5e-5 metab1 4e-3 metab2 growth 0.009 yield 0.6 decay 2.6e-6 metab2_exp 20 epsyield 0.12 epsdens 30

fix growth_cheater CHEATER nufeb/growth/cheater sub 3.5e-5 metab1 1e-3 metab2 1e-3 growth 0.009 yield 0.6 decay 2.6e-6

# heterotrophs division, division diameter: 1.36e-6
fix div1 CROSS1 nufeb/division/coccus 1.36e-6 2128
fix div2 CROSS2 nufeb/division/coccus 1.36e-6 8206
fix div3 CHEATER nufeb/division/coccus 1.36e-6 18334

fix death1 CROSS1 nufeb/death/diameter dead 5.43e-7
fix death2 CROSS2 nufeb/death/diameter dead 5.43e-7
fix death3 CHEATER nufeb/death/diameter dead 5.43e-7

# EPS secretion from heterotrophs
fix eps1 CROSS1 nufeb/eps_secretion 5 EPS 1.1 30 32512
fix eps2 CROSS2 nufeb/eps_secretion 5 EPS 1.1 30 50740

#---------------------------Physical Processes--------------------------------#

pair_style  gran/hooke/history 1e-4 NULL 1e-5 NULL 0.0 0    # pairwise interaction
pair_coeff  * *                                             # between atoms

# pairwise interaction between z-wall and atoms
fix wall all wall/gran hooke/history 1e-3 NULL 1e-4 NULL 0 0 zplane 0.0 1e-04

fix vis all viscous 1e-5                                    # viscous damping force

fix grav all gravity 9.81 vector 0.0 0.0 -1.0

fix nve all nve/limit 1e-7                                  # NVE integration with
                                                            # maximum distance limit


#---------------------------Post-Physical Processes---------------------------#

fix coeff_sub all nufeb/diffusion_coeff sub ratio 0.8       # defining diffusion coeff in the biofilm
fix coeff_metab1 all nufeb/diffusion_coeff metab1 ratio 0.8    # region is 80% of the value in liquid
fix coeff_metab2 all nufeb/diffusion_coeff metab2 ratio 0.8

#---------------------------Chemical Processes---------------------------------#

fix diff_sub all nufeb/diffusion_reaction sub 1e-9        # diffusion reaction for updating
fix diff_metab1 all nufeb/diffusion_reaction metab1 4e-9     # distribusion of substrate concentration
fix diff_metab2 all nufeb/diffusion_reaction metab2 4e-9

#--------------------------Computations and Outputs----------------------------#

variable mass equal "mass(all)"                             # total mass
variable ncross1 equal "count(CROSS1)"                      # total # of CROSS1
variable ncross2 equal "count(CROSS2)"                      # total # of CROSS2
variable ncheater equal "count(CHEATER)"
variable ndead equal "count(dead)"
variable neps equal "count(EPS)"

shell mkdir vtk_EPS_ch                                            # dump vtk files to /vtk folder
dump du1 all vtk 10 vtk_EPS_ch/dump*.vtu id type diameter         # require build NUFEB with vtk option
dump du2 all grid/vtk 10 vtk_EPS_ch/dump_%_*.vti con rea den gro

#dump du3 all movie 10 movie.avi type diameter view 80 60    # dump video
#dump_modify du3 acolor 1 blue acolor 2 lightgrey framerate 10


                                                            # dump hdf5 files to /hdf5 folder
#shell mkdir hdf5                                           # require build NUFEB with hdf5 option
#dump du3 all nufeb/hdf5 10 dump.h5 id type x y z vx vy vz fx fy fz radius conc reac

thermo_style custom step cpu atoms v_ncross1 v_ncross2 v_ncheater v_ndead v_neps v_mass     # screen and log outputs
thermo 1
thermo_modify   lost ignore

#-----------------------------------Run----------------------------------------#

# issue run command, define timesteps for physical (pairdt) and chemical (diffdt) processes
run_style nufeb diffdt 1e-4 difftol 1e-6 pairdt 1e-2 pairtol 1 pairmax 1000 diffmax 5000

timestep 12000                                               # define biological timesteps (1000s)

run 320                                                    # growing biofilm for 900x1000s
Generated 0 of 6 mixed pair_coeff terms from geometric mixing rule
Last active /omp style is pair_style gran/hooke/history/omp
Neighbor list info ...
  update every 1 steps, delay 10 steps, check yes
  max neighbors/atom: 2000, page size: 100000
  master list distance cutoff = 2.49e-06
  ghost atom cutoff = 2.49e-06
  binsize = 1.245e-06, bins = 49 49 49
  1 neighbor lists, perpetual/occasional/extra = 1 0 0
  (1) pair gran/hooke/history/omp, perpetual
      attributes: half, newton off, size, history, omp
      pair build: half/size/bin/newtoff/omp
      stencil: full/bin/3d
      bin: standard
Per MPI rank memory allocation (min/avg/max) = 11.02 | 11.02 | 11.02 Mbytes
   Step          CPU          Atoms      v_ncross1      v_ncross2      v_ncheater      v_ndead         v_neps         v_mass    
         0   0                    150   50             50             50             0              0              1.3295396e-13
         1   0.38353056           432   90             85             86             0              171            1.7267788e-13
         2   0.76578832           796   119            127            138            0              412            1.9522394e-13
         3   1.0946691           1117   130            146            177            0              664            2.141084e-13 
         4   1.408853            1429   136            152            199            0              942            2.3172232e-13
         5   1.6423278           1735   140            158            213            0              1224           2.4893032e-13
         6   1.842785            2047   145            167            225            0              1510           2.6574328e-13
         7   1.9758209           2389   155            178            239            0              1817           2.820962e-13 
         8   2.1314834           2748   163            189            254            0              2142           2.9833351e-13
         9   2.2639712           3127   170            198            281            0              2478           3.1430551e-13
        10   10.075599           3499   176            205            301            0              2817           3.2960237e-13
        11   10.201708           3898   185            215            319            0              3179           3.4491747e-13
        12   10.341873           4280   185            220            334            0              3541           3.5995141e-13
        13   10.453067           4665   189            226            353            0              3897           3.7464923e-13
        14   10.557857           5052   192            229            368            0              4263           3.8911268e-13
        15   10.636911           5448   196            232            383            0              4637           4.0312133e-13
        16   10.725153           5827   199            237            395            0              4996           4.1662684e-13
        17   10.833587           6223   205            242            420            0              5356           4.297477e-13 
        18   10.922778           6616   208            245            434            0              5729           4.4282791e-13
        19   11.033063           7028   216            255            453            0              6104           4.5557533e-13
        20   11.142943           7411   218            263            468            0              6462           4.678025e-13 
        21   11.243391           7807   220            264            483            0              6840           4.7986717e-13
        22   11.367205           8223   224            266            507            0              7226           4.9172644e-13
        23   11.473619           8598   231            268            517            0              7582           5.0283095e-13
        24   11.570618           8990   235            271            536            0              7948           5.1385005e-13
        25   11.65001            9398   239            277            548            0              8334           5.2433766e-13
        26   11.768874           9797   241            282            558            0              8716           5.347297e-13 
        27   11.88007           10181   243            284            570            0              9084           5.441966e-13 
        28   11.973333          10578   246            289            584            0              9459           5.5361529e-13
        29   12.081657          10989   249            291            609            0              9840           5.625072e-13 
        30   12.213265          11374   254            296            617            0              10207          5.7109052e-13
        31   12.364449          11795   257            305            625            0              10608          5.7979748e-13
        32   12.485943          12186   258            309            641            0              10978          5.8783618e-13
        33   12.611594          12601   262            312            650            0              11377          5.9547208e-13
        34   12.74261           12988   263            315            662            0              11748          6.026862e-13 
        35   12.878973          13375   265            316            668            0              12126          6.0960203e-13
        36   13.088477          13770   267            318            678            0              12507          6.1621092e-13
        37   13.298667          14173   273            320            684            0              12896          6.2245662e-13
        38   13.598659          14565   275            321            692            0              13277          6.2864185e-13
        39   13.830229          14958   276            324            699            0              13659          6.3444196e-13
        40   14.269219          15353   281            325            711            0              14036          6.4011159e-13
        41   14.490084          15736   282            327            715            0              14412          6.4547922e-13
        42   15.285167          16143   285            329            721            0              14808          6.5073187e-13
        43   15.717319          16511   285            331            729            0              15166          6.5545819e-13
        44   16.300001          16921   289            331            734            0              15567          6.6030852e-13
        45   17.216652          17294   293            334            739            0              15928          6.6423946e-13
        46   18.113425          17709   297            336            744            0              16332          6.683871e-13 
        47   19.06681           18121   298            344            752            0              16727          6.7238721e-13
        48   20.005057          18515   304            346            756            0              17109          6.7593891e-13
        49   20.993246          18927   305            350            763            0              17509          6.7949731e-13
        50   22.038218          19357   311            354            768            0              17924          6.8276457e-13
        51   23.034137          19763   312            357            771            0              18323          6.8583368e-13
        52   24.056581          20175   313            359            774            0              18729          6.8892132e-13
        53   25.10425           20592   314            360            780            0              19138          6.9179051e-13
        54   26.163326          21017   318            362            783            0              19554          6.9462376e-13
        55   27.243826          21427   318            366            783            0              19960          6.972964e-13 
        56   28.37606           21845   319            368            790            0              20368          6.9991969e-13
        57   29.503553          22272   319            368            794            0              20791          7.02287e-13  
        58   30.692153          22685   321            370            797            0              21197          7.0505767e-13
        59   31.883037          23105   324            373            797            0              21611          7.0729332e-13
        60   33.135419          23523   327            374            802            0              22020          7.0981437e-13
        61   34.36906           23940   329            376            803            0              22432          7.1235498e-13
        62   35.635859          24368   331            377            806            1              22853          7.1493446e-13
        63   36.926769          24794   334            379            809            2              23270          7.1723255e-13
        64   38.220408          25236   339            381            815            2              23699          7.1952222e-13
        65   39.538989          25679   342            384            819            3              24131          7.2179449e-13
        66   40.873185          26097   343            386            817            5              24546          7.2412494e-13
        67   42.252838          26536   345            388            819            5              24979          7.2654547e-13
        68   43.667523          26969   346            388            823            6              25406          7.2884783e-13
        69   45.117912          27394   347            388            823            7              25829          7.3105186e-13
        70   46.665137          27830   348            390            828            8              26256          7.3313307e-13
        71   48.137019          28251   350            390            830            8              26673          7.3558449e-13
        72   49.650041          28685   350            392            829            10             27104          7.3791396e-13
        73   51.219958          29127   353            393            828            14             27539          7.3994359e-13
        74   52.802881          29560   355            394            828            16             27967          7.4199947e-13
        75   54.433696          29996   357            396            825            22             28396          7.4404477e-13
        76   56.07258           30435   358            397            821            28             28831          7.4624421e-13
        77   57.751402          30881   359            399            817            36             29270          7.4823722e-13
        78   59.467565          31321   361            400            815            43             29702          7.5037942e-13
        79   61.227624          31762   364            400            813            48             30137          7.5282331e-13
        80   63.102535          32213   365            405            811            54             30578          7.5567573e-13
        81   64.953437          32652   367            407            812            59             31007          7.5877734e-13
        82   66.894527          33102   368            408            818            63             31445          7.6224107e-13
        83   68.898852          33550   369            409            822            71             31879          7.6689569e-13
        84   70.972728          33988   370            411            824            81             32302          7.7197597e-13
        85   73.071701          34435   371            412            831            88             32733          7.7800461e-13
        86   75.223973          34875   372            413            844            96             33150          7.8467317e-13
        87   77.438524          35337   372            416            858            102            33589          7.9251523e-13
        88   79.661887          35773   373            417            873            107            34003          8.0135375e-13
        89   81.940165          36228   374            421            897            114            34422          8.1119214e-13
        90   84.393041          36655   376            422            915            121            34821          8.2159376e-13
        91   86.761462          37095   376            424            946            129            35220          8.3317932e-13
        92   89.156568          37547   377            427            977            132            35634          8.457232e-13 
        93   91.555409          37965   378            428            1010           136            36013          8.5885245e-13
        94   94.035397          38410   381            429            1041           144            36415          8.7267134e-13
        95   96.553995          38844   383            431            1072           156            36802          8.8705106e-13
        96   99.109549          39291   383            431            1114           162            37201          9.019915e-13 
        97   101.67778          39719   386            432            1149           166            37586          9.1732095e-13
        98   104.29418          40170   387            433            1196           171            37983          9.326176e-13 
        99   106.93788          40581   388            433            1231           176            38353          9.4800283e-13
       100   109.61558          41017   388            433            1287           181            38728          9.635987e-13 
       101   112.3417           41479   389            435            1329           186            39140          9.7898363e-13
       102   115.06915          41901   390            437            1368           193            39513          9.9419313e-13
       103   117.80894          42305   392            437            1400           198            39878          1.0093511e-12
       104   120.55092          42734   394            437            1441           202            40260          1.0238948e-12
       105   123.37853          43162   396            437            1483           210            40636          1.0380365e-12
       106   126.33769          43558   396            437            1515           216            40994          1.0516466e-12
       107   129.27712          43977   398            437            1550           222            41370          1.0657648e-12
       108   132.28831          44384   399            437            1594           224            41730          1.0797841e-12
       109   135.36283          44789   403            438            1624           230            42094          1.093833e-12 
       110   138.53036          45215   404            438            1661           237            42475          1.1082356e-12
       111   141.67654          45624   406            438            1695           243            42842          1.1227368e-12
       112   144.88921          46038   408            438            1741           250            43201          1.137309e-12 
       113   148.1386           46478   413            438            1789           254            43584          1.1521033e-12
       114   151.4334           46879   413            438            1824           261            43943          1.1670591e-12
       115   154.80048          47273   414            440            1847           269            44303          1.1820492e-12
       116   158.21216          47696   415            441            1894           274            44672          1.1974798e-12
       117   161.62097          48104   417            443            1929           282            45033          1.2124196e-12
       118   165.08616          48513   418            443            1970           290            45392          1.2270354e-12
       119   168.60705          48917   420            443            2014           296            45744          1.2416384e-12
       120   172.30451          49321   421            444            2050           310            46096          1.2558664e-12
       121   175.89385          49712   423            446            2083           319            46441          1.2694833e-12
       122   179.53842          50140   426            447            2125           327            46815          1.282996e-12 
       123   183.25188          50544   429            448            2165           338            47164          1.2954069e-12
       124   187.03348          50947   429            448            2202           345            47523          1.3079984e-12
       125   190.88668          51339   431            448            2239           352            47869          1.3194099e-12
       126   194.74875          51741   432            450            2269           371            48219          1.3298879e-12
       127   198.67913          52123   436            450            2289           392            48556          1.3390974e-12
       128   202.69664          52543   437            450            2314           406            48936          1.3477914e-12
       129   206.73242          52946   438            452            2349           420            49287          1.355561e-12 
       130   210.98504          53359   441            452            2373           432            49661          1.3642191e-12
       131   215.13893          53740   443            454            2383           449            50011          1.3715366e-12
       132   219.41578          54160   444            457            2388           478            50393          1.3789225e-12
       133   223.75219          54577   447            458            2404           502            50766          1.3854608e-12
       134   228.16029          54986   447            461            2418           526            51134          1.3911457e-12
       135   232.62762          55420   450            463            2435           550            51522          1.3970961e-12
       136   237.15738          55842   452            466            2454           577            51893          1.4026852e-12
       137   241.80331          56299   454            467            2465           606            52307          1.4087701e-12
       138   246.45553          56717   455            467            2480           630            52685          1.4146027e-12
       139   251.19567          57162   457            468            2504           652            53081          1.4207499e-12
       140   256.13976          57619   458            468            2525           672            53496          1.4267375e-12
       141   261.01971          58064   458            468            2534           701            53903          1.4328523e-12
       142   265.99439          58589   460            469            2572           721            54367          1.4395484e-12
       143   271.03445          59053   461            471            2593           746            54782          1.4463968e-12
       144   276.17091          59572   463            472            2640           766            55231          1.4535171e-12
       145   281.34952          60043   463            472            2658           794            55656          1.4608189e-12
       146   286.59674          60534   465            473            2690           805            56101          1.468112e-12 
       147   291.98526          61041   465            473            2726           824            56553          1.4756003e-12
       148   297.44964          61572   466            473            2775           841            57017          1.4831492e-12
       149   302.99208          62047   466            473            2814           856            57438          1.4909535e-12
       150   308.91444          62585   467            473            2862           869            57914          1.4992981e-12
       151   314.67401          63070   467            473            2906           878            58346          1.508503e-12 
       152   320.54545          63617   468            474            2965           886            58824          1.5181924e-12
       153   326.48701          64124   469            474            3016           894            59271          1.5284892e-12
       154   332.5088           64650   469            474            3078           907            59722          1.5391581e-12
       155   338.62039          65155   469            474            3124           914            60174          1.5500637e-12
       156   344.891            65684   469            476            3183           919            60637          1.5617386e-12
       157   351.15364          66191   469            476            3237           930            61079          1.5740176e-12
       158   357.54046          66724   469            476            3303           934            61542          1.5869895e-12
       159   364.03671          67233   470            476            3355           948            61984          1.6007511e-12
       160   370.84382          67766   470            476            3419           952            62449          1.6155104e-12
       161   377.57927          68258   471            476            3475           966            62870          1.6313695e-12
       162   384.40699          68788   471            476            3556           976            63309          1.6491951e-12
       163   391.33173          69316   472            476            3621           1002           63745          1.6685414e-12
       164   398.34424          69829   473            475            3688           1021           64172          1.6889455e-12
       165   405.43519          70331   473            476            3744           1050           64588          1.7102598e-12
       166   412.62051          70848   473            475            3817           1081           65002          1.7324036e-12
       167   419.87447          71351   473            474            3879           1120           65405          1.7553563e-12
       168   427.18865          71873   473            474            3949           1149           65828          1.7785761e-12
       169   434.63512          72372   473            473            4018           1187           66221          1.8016064e-12
       170   442.33372          72887   473            473            4082           1225           66634          1.8252333e-12
       171   449.94178          73388   473            473            4151           1259           67032          1.8494555e-12
       172   457.63156          73893   473            472            4224           1293           67431          1.8739222e-12
       173   465.43872          74381   473            472            4304           1325           67807          1.8984923e-12
       174   473.33413          74903   474            472            4385           1363           68209          1.9239691e-12
       175   481.32557          75391   475            472            4471           1395           68578          1.9510433e-12
       176   489.40264          75877   475            472            4549           1426           68955          1.9783755e-12
       177   497.53876          76370   475            472            4636           1452           69335          2.0069685e-12
       178   505.75565          76869   475            471            4729           1485           69709          2.0359593e-12
       179   514.07064          77344   475            471            4823           1509           70066          2.0651902e-12
       180   522.61579          77865   475            470            4932           1536           70452          2.0948896e-12
       181   531.08049          78309   475            469            5005           1563           70797          2.1241197e-12
       182   539.66786          78818   475            468            5109           1597           71169          2.1536313e-12
       183   548.27213          79311   475            467            5228           1629           71512          2.1831845e-12
       184   556.96426          79802   475            466            5326           1650           71885          2.2123671e-12
       185   565.7365           80280   475            466            5430           1677           72232          2.2413525e-12
       186   574.59673          80748   475            466            5528           1701           72578          2.2702319e-12
       187   583.5153           81245   475            466            5629           1736           72939          2.2989609e-12
       188   592.55508          81746   474            465            5740           1778           73289          2.3277036e-12
       189   601.66909          82203   474            464            5820           1813           73632          2.3562271e-12
       190   611.07421          82680   473            464            5921           1843           73979          2.3847218e-12
       191   620.38571          83179   473            463            6019           1886           74338          2.4141427e-12
       192   629.79627          83643   472            462            6102           1933           74674          2.4437499e-12
       193   639.27145          84137   472            461            6199           1979           75026          2.4743345e-12
       194   648.86336          84625   470            459            6296           2028           75372          2.5052628e-12
       195   658.57025          85078   470            459            6387           2065           75697          2.5375107e-12
       196   668.37904          85572   470            457            6501           2112           76032          2.5702803e-12
       197   678.28158          86063   470            457            6613           2143           76380          2.6037564e-12
       198   688.28171          86538   470            457            6716           2196           76699          2.6377556e-12
       199   698.36811          87026   470            454            6792           2265           77045          2.6719747e-12
       200   708.75421          87496   470            452            6902           2307           77365          2.7056593e-12
       201   719.00252          87981   470            452            7009           2348           77702          2.7393437e-12
       202   729.36689          88464   470            452            7123           2391           78028          2.7729739e-12
       203   739.78983          88977   471            452            7266           2431           78357          2.8060989e-12
       204   750.2896           89478   470            452            7410           2476           78670          2.8391807e-12
       205   760.90379          89951   469            452            7493           2530           79007          2.873421e-12 
       206   771.5787           90452   469            450            7629           2578           79326          2.9085143e-12
       207   782.38494          90917   468            448            7715           2652           79634          2.9451658e-12
       208   793.26505          91423   468            447            7818           2722           79968          2.9833263e-12
       209   804.22913          91934   468            444            7938           2790           80294          3.0232362e-12
       210   815.52784          92394   467            443            8069           2841           80574          3.0644539e-12
       211   826.68914          92925   464            440            8217           2918           80886          3.1069009e-12
       212   837.99772          93434   464            440            8345           2984           81201          3.150496e-12 
       213   849.41561          93948   461            439            8493           3049           81506          3.1946952e-12
       214   860.90768          94440   460            437            8632           3124           81787          3.2395304e-12
       215   872.50575          94949   458            435            8747           3225           82084          3.2852028e-12
       216   884.21643          95487   457            433            8889           3306           82402          3.3305269e-12
       217   896.02671          95982   455            432            9022           3379           82694          3.3767227e-12
       218   907.96582          96506   454            429            9197           3459           82967          3.4241291e-12
       219   920.04888          97040   453            427            9337           3549           83274          3.4730432e-12
       220   932.46397          97548   453            427            9501           3621           83546          3.5226049e-12
       221   944.79924          98090   452            424            9665           3698           83851          3.5737425e-12
       222   957.2296           98647   452            423            9829           3788           84155          3.6254648e-12
       223   969.75927          99160   452            421            10002          3868           84417          3.6775993e-12
       224   982.44649          99701   450            420            10157          3955           84719          3.7299281e-12
       225   995.25708         100229   450            420            10297          4049           85013          3.784802e-12 
       226   1008.2188         100753   449            419            10453          4148           85284          3.8418083e-12
       227   1021.298          101331   447            419            10624          4263           85578          3.9013437e-12
       228   1034.5461         101889   446            418            10788          4362           85875          3.9645165e-12
       229   1047.9486         102414   445            415            10963          4457           86134          4.0329209e-12
       230   1061.7057         103011   444            413            11202          4524           86428          4.1046443e-12
       231   1075.2955         103582   444            412            11415          4603           86708          4.1796659e-12
       232   1089.0908         104173   442            409            11650          4693           86979          4.2573624e-12
       233   1103.0517         104786   440            408            11888          4782           87268          4.3383415e-12
       234   1117.1494         105386   436            407            12165          4852           87526          4.421848e-12 
       235   1131.4706         106018   432            407            12451          4930           87798          4.5087346e-12
       236   1145.9116         106667   432            403            12746          5005           88081          4.6056684e-12
       237   1160.655          107319   432            400            13094          5074           88319          4.7122307e-12
       238   1175.5567         108002   431            398            13434          5149           88590          4.8277814e-12
       239   1190.6864         108755   428            396            13840          5216           88875          4.9532681e-12
       240   1206.3273         109478   428            395            14240          5292           89123          5.0877402e-12
       241   1222.0028         110212   425            395            14640          5370           89382          5.2233626e-12
       242   1237.9154         110971   425            394            15057          5438           89657          5.3612214e-12
       243   1254.0484         111740   424            393            15485          5531           89907          5.5004455e-12
       244   1270.3946         112513   423            388            15932          5613           90157          5.6439033e-12
       245   1286.8998         113261   421            385            16323          5714           90418          5.7902933e-12
       246   1303.6386         114061   421            385            16785          5799           90671          5.9275215e-12
       247   1320.5237         114856   421            385            17265          5874           90911          6.0713355e-12
       248   1337.5556         115693   419            383            17781          5953           91157          6.2319423e-12
       249   1354.6809         116514   417            382            18278          6032           91405          6.3866885e-12
       250   1372.1901         117405   416            379            18838          6127           91645          6.5524042e-12
       251   1389.5617         118250   416            376            19366          6216           91876          6.7153247e-12
       252   1406.9761         119083   415            376            19885          6301           92106          6.8831044e-12
       253   1424.4814         119991   414            375            20453          6406           92343          7.0608492e-12
       254   1442.0708         120922   413            373            21068          6496           92572          7.2256454e-12
       255   1459.7253         121810   411            369            21616          6615           92799          7.4098809e-12
       256   1477.5006         122709   408            366            22179          6739           93017          7.5940354e-12
       257   1495.3213         123632   402            363            22768          6874           93225          7.7782741e-12
       258   1513.2366         124642   399            362            23411          7030           93440          7.9837745e-12
       259   1531.24           125538   394            360            23963          7177           93644          8.1673467e-12
       260   1549.5954         126405   392            357            24463          7358           93835          8.3354277e-12
       261   1567.8361         127405   390            356            25070          7536           94053          8.529072e-12 
       262   1586.1572         128355   383            353            25653          7738           94228          8.715199e-12 
       263   1604.6266         129318   380            353            26255          7934           94396          8.918736e-12 
       264   1623.1726         130249   377            348            26765          8164           94595          9.0953792e-12
       265   1641.8024         131208   372            344            27315          8419           94758          9.2955078e-12
       266   1660.5547         132189   369            338            27935          8639           94908          9.5096258e-12
       267   1679.4241         133157   366            333            28521          8871           95066          9.6992222e-12
       268   1698.3792         134113   362            329            29077          9122           95223          9.9005782e-12
       269   1717.4521         135038   357            329            29618          9367           95367          1.0069389e-11
       270   1736.9399         135985   352            323            30212          9613           95485          1.0248092e-11
       271   1756.2741         136913   350            312            30764          9866           95621          1.04382e-11  
       272   1775.7002         137843   348            309            31353          10092          95741          1.0620315e-11
       273   1795.2756         138751   342            302            31936          10301          95870          1.0778686e-11
       274   1814.9285         139657   334            297            32510          10551          95965          1.0952755e-11
       275   1834.6391         140556   329            294            33069          10799          96065          1.1106882e-11
       276   1854.4654         141416   322            288            33598          11040          96168          1.1260274e-11
       277   1874.3939         142233   320            281            34100          11277          96255          1.1390718e-11
       278   1894.4292         143084   314            274            34631          11523          96342          1.1539238e-11
       279   1914.588          143871   308            267            35122          11750          96424          1.1661827e-11
       280   1935.1603         144630   304            258            35542          12014          96512          1.1777695e-11
       281   1955.4941         145448   300            254            36040          12276          96578          1.1865603e-11
       282   1975.913          146125   295            247            36375          12562          96646          1.1945167e-11
       283   1996.3873         146856   286            239            36748          12881          96702          1.2029216e-11
       284   2016.9318         147456   272            230            36966          13231          96757          1.2100447e-11
       285   2037.5994         148101   265            222            37281          13532          96801          1.2166163e-11
       286   2058.3155         148820   258            209            37627          13870          96856          1.2230131e-11
       287   2079.0824         149411   253            203            37853          14200          96902          1.2282042e-11
       288   2099.951          150044   241            194            38139          14508          96962          1.2329819e-11
       289   2120.9009         150602   232            184            38380          14805          97001          1.2369604e-11
       290   2142.3272         151237   218            173            38665          15134          97047          1.2425732e-11
       291   2163.4842         151779   210            169            38821          15500          97079          1.2447345e-11
       292   2184.7248         152406   196            162            39081          15854          97113          1.24855e-11  
       293   2206.062          152889   190            159            39210          16205          97125          1.2505387e-11
       294   2227.5            153456   183            155            39419          16540          97159          1.2532488e-11
       295   2249.0423         153964   173            144            39575          16876          97196          1.2535228e-11
       296   2270.6899         154455   167            137            39734          17190          97227          1.2551349e-11
       297   2292.3806         154925   162            129            39852          17517          97265          1.2561566e-11
       298   2314.1487         155457   154            122            40052          17840          97289          1.2570359e-11
       299   2335.9762         155879   148            112            40116          18180          97323          1.2562841e-11
       300   2358.2167         156313   141            105            40194          18519          97354          1.2549468e-11
       301   2380.2176         156821   131            99             40315          18897          97379          1.2557595e-11
       302   2402.2963         157235   123            92             40379          19238          97403          1.2570162e-11
       303   2424.4787         157702   110            88             40442          19626          97436          1.2558231e-11
       304   2446.7575         158130   104            81             40492          19989          97464          1.2561364e-11
       305   2469.1268         158577   103            76             40541          20360          97497          1.2531247e-11
       306   2491.5875         158982   95             73             40577          20719          97518          1.252927e-11 
       307   2514.1239         159326   86             65             40546          21084          97545          1.249005e-11 
       308   2536.7217         159777   81             59             40588          21475          97574          1.2507336e-11
       309   2559.3669         160188   78             54             40598          21844          97614          1.2463399e-11
       310   2582.418          160557   72             49             40590          22216          97630          1.2455942e-11
       311   2605.213          161028   63             43             40692          22578          97652          1.2474029e-11
       312   2628.0018         161354   58             40             40651          22919          97686          1.2447139e-11
       313   2650.9007         161805   52             39             40708          23295          97711          1.2460084e-11
       314   2673.9329         162177   49             38             40715          23642          97733          1.2428317e-11
       315   2697.0164         162634   46             34             40801          23990          97763          1.2446617e-11
       316   2720.1907         163032   40             31             40832          24345          97784          1.2448743e-11
       317   2743.4225         163415   34             31             40858          24690          97802          1.24459e-11  
       318   2766.7626         163855   30             31             40914          25051          97829          1.2451464e-11
       319   2790.1365         164191   29             29             40883          25401          97849          1.2431085e-11
       320   2813.9832         164562   27             29             40890          25748          97868          1.2440282e-11
Loop time of 2813.98 on 16 procs for 320 steps with 164562 atoms

97.7% CPU use with 16 MPI tasks x 1 OpenMP threads

MPI task timing breakdown:
Section |  min time  |  avg time  |  max time  |%varavg| %total
---------------------------------------------------------------
Pair    | 791.76     | 895.94     | 1008.3     | 223.8 | 31.84
Neigh   | 590.88     | 697.42     | 828.88     | 247.0 | 24.78
Comm    | 346.62     | 397.13     | 454.69     | 166.0 | 14.11
Output  | 13.537     | 13.537     | 13.538     |   0.0 |  0.48
Modify  | 499.54     | 795.95     | 1056.7     | 535.3 | 28.29
Other   |            | 14         |            |       |  0.50

Nlocal:        10285.1 ave       13972 max        8317 min
Histogram: 3 4 1 2 2 1 1 0 0 2
Nghost:        7907.69 ave        9385 max        6648 min
Histogram: 2 2 2 1 3 0 1 3 0 2
Neighs:         101814 ave      113069 max       92436 min
Histogram: 2 1 2 1 4 1 2 1 1 1

Total # of neighbors = 1629032
Ave neighs/atom = 9.8991991
Neighbor list builds = 28060
Dangerous builds = 27740

Total wall time: 0:47:33
