LAMMPS (23 Jun 2022 - Update 4)
  using 1 OpenMP thread(s) per MPI task
package omp 0
using multi-threaded neighbor list subroutines
#-----------------------------------------------------------------------------#
#                NUFEB Simulation: Heterotrophic Biofilm Growth               #
#-----------------------------------------------------------------------------#


#-----------------------------System Settings---------------------------------#

units si                                    # using si units (m, s, kg)
atom_style      coccus                      # using nufeb coccus atom style
atom_modify     map array sort 10 0         # map array - find atoms using indices
		                            # sort every 10

boundary        pp pp ff                    # periodic boundaries in x and y
                                            # fixed boundary in z

newton          off                         # forces between local and ghost
                                            # atoms are computed in each
					     # processor without communication

processors      * * 1                       # processor grid

comm_modify     vel yes                     # communicate velocities for ghost atoms

read_data       atom_ch.in	             # read atom.in file which defines domain size
Reading data file ...
  orthogonal box = (0 0 0) to (6e-05 6e-05 6e-05)
  4 by 4 by 1 MPI processor grid
  reading atoms ...
  150 atoms
  read_data CPU = 0.008 seconds
                                            # and initial atoms


#--------------------Microbes and Functional Groups-------------------------#

group           CROSS1   type 1               # assign type 1,2 atoms to CROSS group
50 atoms in group CROSS1
group           CROSS2   type 2
50 atoms in group CROSS2
group		CHEATER  type 3
50 atoms in group CHEATER
group           dead     type 4
0 atoms in group dead
group		EPS	 type 5
0 atoms in group EPS

neighbor        5e-7 bin                   # setting neighbour skin distance and style

neigh_modify    check yes                  # rebuild neighbour list if any atom
                                           # had moved more than half the skin distance


#--------------------------Mesh Grid and Substrates--------------------------#

# defining grid sytle, substrate names, and grid size
grid_style      nufeb/chemostat 3 sub metab1 metab2 5e-6

# set diffusion boundary conditions and initial concentrations (liquid:kg/m3)
grid_modify     set sub      pp pp nd  1.8e-4
No /omp style for force computation currently active
grid_modify     set metab1   pp pp nd  1e-4
No /omp style for force computation currently active
grid_modify     set metab2   pp pp nd  1e-4
No /omp style for force computation currently active


#--------------------------Biological Processes-------------------------------#

# heterotrophs growth
fix growth_cross1 CROSS1 nufeb/growth/cross1 sub 3.5e-5 metab2 4e-3 metab1 growth 0.009 yield 0.6 decay 2.6e-6 metab1_exp 20 epsyield 0.12 epsdens 30

fix growth_cross2 CROSS2 nufeb/growth/cross2 sub 3.5e-5 metab1 4e-3 metab2 growth 0.009 yield 0.6 decay 2.6e-6 metab2_exp 20 epsyield 0.12 epsdens 30

fix growth_cheater CHEATER nufeb/growth/cheater sub 3.5e-5 metab1 1e-3 metab2 1e-3 growth 0.009 yield 0.6 decay 2.6e-6

# heterotrophs division, division diameter: 1.36e-6
fix div1 CROSS1 nufeb/division/coccus 1.36e-6 167
fix div2 CROSS2 nufeb/division/coccus 1.36e-6 362
fix div3 CHEATER nufeb/division/coccus 1.36e-6 685

fix death1 CROSS1 nufeb/death/diameter dead 5.43e-7
fix death2 CROSS2 nufeb/death/diameter dead 5.43e-7
fix death3 CHEATER nufeb/death/diameter dead 5.43e-7

# EPS secretion from heterotrophs
fix eps1 CROSS1 nufeb/eps_secretion 5 EPS 1.1 30 1136
fix eps2 CROSS2 nufeb/eps_secretion 5 EPS 1.1 30 1715

#---------------------------Physical Processes--------------------------------#

pair_style  gran/hooke/history 1e-4 NULL 1e-5 NULL 0.0 0    # pairwise interaction
pair_coeff  * *                                             # between atoms

# pairwise interaction between z-wall and atoms
fix wall all wall/gran hooke/history 1e-3 NULL 1e-4 NULL 0 0 zplane 0.0 1e-04

fix vis all viscous 1e-5                                    # viscous damping force

fix grav all gravity 9.81 vector 0.0 0.0 -1.0

fix nve all nve/limit 1e-7                                  # NVE integration with
                                                            # maximum distance limit


#---------------------------Post-Physical Processes---------------------------#

fix coeff_sub all nufeb/diffusion_coeff sub ratio 0.8       # defining diffusion coeff in the biofilm
fix coeff_metab1 all nufeb/diffusion_coeff metab1 ratio 0.8    # region is 80% of the value in liquid
fix coeff_metab2 all nufeb/diffusion_coeff metab2 ratio 0.8

#---------------------------Chemical Processes---------------------------------#

fix diff_sub all nufeb/diffusion_reaction sub 1e-9        # diffusion reaction for updating
fix diff_metab1 all nufeb/diffusion_reaction metab1 4e-9     # distribusion of substrate concentration
fix diff_metab2 all nufeb/diffusion_reaction metab2 4e-9

#--------------------------Computations and Outputs----------------------------#

variable mass equal "mass(all)"                             # total mass
variable ncross1 equal "count(CROSS1)"                      # total # of CROSS1
variable ncross2 equal "count(CROSS2)"                      # total # of CROSS2
variable ncheater equal "count(CHEATER)"
variable ndead equal "count(dead)"
variable neps equal "count(EPS)"

shell mkdir vtk_EPS_ch                                            # dump vtk files to /vtk folder
dump du1 all vtk 10 vtk_EPS_ch/dump*.vtu id type diameter         # require build NUFEB with vtk option
dump du2 all grid/vtk 10 vtk_EPS_ch/dump_%_*.vti con rea den gro

#dump du3 all movie 10 movie.avi type diameter view 80 60    # dump video
#dump_modify du3 acolor 1 blue acolor 2 lightgrey framerate 10


                                                            # dump hdf5 files to /hdf5 folder
#shell mkdir hdf5                                           # require build NUFEB with hdf5 option
#dump du3 all nufeb/hdf5 10 dump.h5 id type x y z vx vy vz fx fy fz radius conc reac

thermo_style custom step cpu atoms v_ncross1 v_ncross2 v_ncheater v_ndead v_neps v_mass     # screen and log outputs
thermo 1
thermo_modify   lost ignore

#-----------------------------------Run----------------------------------------#

# issue run command, define timesteps for physical (pairdt) and chemical (diffdt) processes
run_style nufeb diffdt 1e-4 difftol 1e-6 pairdt 1e-2 pairtol 1 pairmax 1000 diffmax 5000

timestep 12000                                               # define biological timesteps (1000s)

run 320                                                    # growing biofilm for 900x1000s
Generated 0 of 6 mixed pair_coeff terms from geometric mixing rule
Last active /omp style is pair_style gran/hooke/history/omp
Neighbor list info ...
  update every 1 steps, delay 10 steps, check yes
  max neighbors/atom: 2000, page size: 100000
  master list distance cutoff = 2.49e-06
  ghost atom cutoff = 2.49e-06
  binsize = 1.245e-06, bins = 49 49 49
  1 neighbor lists, perpetual/occasional/extra = 1 0 0
  (1) pair gran/hooke/history/omp, perpetual
      attributes: half, newton off, size, history, omp
      pair build: half/size/bin/newtoff/omp
      stencil: full/bin/3d
      bin: standard
Per MPI rank memory allocation (min/avg/max) = 11.02 | 11.02 | 11.02 Mbytes
   Step          CPU          Atoms      v_ncross1      v_ncross2      v_ncheater      v_ndead         v_neps         v_mass    
         0   0                    150   50             50             50             0              0              1.3295396e-13
         1   0.38408657           432   90             85             86             0              171            1.7270991e-13
         2   0.76425435           789   118            123            137            0              411            1.9558696e-13
         3   1.0968356           1122   130            144            179            0              669            2.143009e-13 
         4   1.4109052           1427   134            154            196            0              943            2.3210191e-13
         5   1.6099358           1745   140            164            214            0              1227           2.4951317e-13
         6   1.7751162           2073   147            171            231            0              1524           2.6640638e-13
         7   1.9353017           2408   151            176            246            0              1835           2.8303898e-13
         8   2.1117848           2766   162            186            268            0              2150           2.9939871e-13
         9   2.2554322           3133   172            193            283            0              2485           3.1535509e-13
        10   2.3979897           3506   178            199            308            0              2821           3.308805e-13 
        11   2.5064104           3891   184            206            324            0              3177           3.4614952e-13
        12   2.6394436           4266   189            213            340            0              3524           3.6102729e-13
        13   2.7543081           4667   192            218            361            0              3896           3.7581707e-13
        14   2.8677831           5039   197            222            379            0              4241           3.8996534e-13
        15   2.9923867           5453   204            230            394            0              4625           4.0403566e-13
        16   3.0821655           5845   208            234            416            0              4987           4.1766106e-13
        17   3.1996626           6243   215            237            426            0              5365           4.3106353e-13
        18   3.3847683           6642   219            239            440            0              5744           4.4399589e-13
        19   3.4939729           7056   225            246            465            0              6120           4.5649305e-13
        20   3.6777878           7446   232            250            481            0              6483           4.6868621e-13
        21   3.7992679           7855   236            256            496            0              6867           4.8017688e-13
        22   3.9061866           8215   240            258            504            0              7213           4.9119305e-13
        23   4.0141258           8611   247            262            515            0              7587           5.019006e-13 
        24   4.1283476           9017   251            265            534            0              7967           5.1239091e-13
        25   4.2197378           9416   252            270            546            0              8348           5.2272878e-13
        26   4.3250922           9796   256            275            563            0              8702           5.3251641e-13
        27   4.4171396          10211   262            277            580            0              9092           5.4219284e-13
        28   4.5263335          10608   267            281            588            0              9472           5.5130647e-13
        29   4.6683438          10996   269            282            597            0              9848           5.602334e-13 
        30   26.077291          11387   272            284            610            0              10221          5.6882508e-13
        31   26.202346          11799   274            288            624            0              10613          5.7735534e-13
        32   26.319711          12175   275            288            634            0              10978          5.8538426e-13
        33   26.477781          12579   281            291            654            0              11353          5.9337757e-13
        34   26.627822          12993   284            294            663            0              11752          6.0142089e-13
        35   26.808992          13387   285            299            680            0              12123          6.093071e-13 
        36   26.991137          13788   287            302            688            0              12511          6.1720869e-13
        37   27.233925          14183   292            304            701            0              12886          6.2499053e-13
        38   27.601173          14585   296            305            713            0              13271          6.3291267e-13
        39   27.859595          14990   300            307            724            0              13659          6.4086367e-13
        40   50.55418           15390   302            309            734            0              14045          6.4872701e-13
        41   51.065336          15798   308            310            749            0              14431          6.5642712e-13
        42   51.373975          16194   311            312            769            0              14802          6.6392531e-13
        43   52.289613          16619   314            315            784            0              15206          6.7152685e-13
        44   52.795334          17001   315            317            793            0              15576          6.791019e-13 
        45   53.662068          17421   315            318            810            0              15978          6.8663873e-13
        46   54.618016          17802   315            320            821            0              16346          6.9366108e-13
        47   55.584253          18217   317            322            838            0              16740          7.0090802e-13
        48   56.548834          18611   319            324            850            0              17118          7.0794964e-13
        49   57.540351          19015   319            327            865            0              17504          7.1484539e-13
        50   58.603705          19421   322            329            878            0              17892          7.218063e-13 
        51   59.630253          19828   326            329            891            0              18282          7.2870643e-13
        52   60.691967          20235   330            330            907            0              18668          7.353259e-13 
        53   61.788725          20650   332            332            921            0              19065          7.4204553e-13
        54   62.959808          21045   333            334            940            0              19438          7.4894887e-13
        55   64.134858          21470   336            334            956            0              19844          7.5665207e-13
        56   65.342619          21859   338            334            976            0              20211          7.6448255e-13
        57   66.600065          22285   340            336            1001           0              20608          7.7277134e-13
        58   67.899112          22684   342            337            1023           0              20982          7.8143936e-13
        59   69.215289          23110   343            339            1044           1              21383          7.9073834e-13
        60   70.697869          23483   343            339            1066           2              21733          8.0006439e-13
        61   72.058135          23937   346            339            1091           2              22159          8.0999853e-13
        62   73.426179          24315   347            341            1118           3              22506          8.197005e-13 
        63   74.796691          24756   349            341            1146           4              22916          8.3003302e-13
        64   76.164928          25159   350            342            1177           4              23286          8.4015393e-13
        65   77.575033          25585   351            343            1211           6              23674          8.5036852e-13
        66   79.036537          25983   353            344            1237           9              24040          8.6061065e-13
        67   80.488355          26418   353            345            1267           12             24441          8.7129437e-13
        68   81.975137          26796   355            345            1294           14             24788          8.8161841e-13
        69   83.468962          27219   356            346            1317           18             25182          8.9236883e-13
        70   85.051244          27629   358            346            1355           22             25548          9.0301255e-13
        71   86.582793          28042   358            349            1381           28             25926          9.1367744e-13
        72   88.162242          28454   359            349            1409           37             26300          9.2403623e-13
        73   89.821163          28865   361            349            1442           44             26669          9.3474592e-13
        74   91.489531          29270   361            350            1469           50             27040          9.4581283e-13
        75   93.223671          29677   361            351            1496           57             27412          9.5696163e-13
        76   95.038798          30082   361            353            1522           66             27780          9.6880222e-13
        77   96.884569          30493   361            353            1556           72             28151          9.8149942e-13
        78   98.784613          30895   361            353            1594           83             28504          9.9481494e-13
        79   100.6888           31289   363            353            1632           87             28854          1.0088668e-12
        80   102.8117           31707   363            353            1670           99             29222          1.0233794e-12
        81   104.75754          32081   364            353            1697           111            29556          1.0380269e-12
        82   106.72788          32500   365            353            1744           118            29920          1.0528839e-12
        83   108.73555          32879   365            353            1775           133            30253          1.0676146e-12
        84   110.76596          33290   366            353            1815           140            30616          1.0826738e-12
        85   112.84611          33677   367            353            1858           152            30947          1.0976021e-12
        86   114.96171          34111   367            354            1907           165            31318          1.1129031e-12
        87   117.20138          34479   368            357            1950           170            31634          1.1280825e-12
        88   119.51283          34899   368            357            2006           177            31991          1.1442855e-12
        89   121.8156           35297   368            357            2053           187            32332          1.1615405e-12
        90   124.59013          35705   368            357            2108           203            32669          1.1792931e-12
        91   126.99704          36107   369            358            2163           215            33002          1.1979944e-12
        92   129.43645          36483   370            358            2211           221            33323          1.2171685e-12
        93   131.89127          36897   371            359            2269           235            33663          1.2368547e-12
        94   134.34927          37299   374            359            2323           244            33999          1.2566236e-12
        95   136.87075          37692   374            359            2382           251            34326          1.2763866e-12
        96   139.39507          38078   374            359            2449           258            34638          1.2959753e-12
        97   141.98373          38485   374            359            2518           266            34968          1.3151789e-12
        98   144.59814          38881   374            359            2587           274            35287          1.3342597e-12
        99   147.29426          39300   374            359            2664           286            35617          1.3530112e-12
       100   172.1023           39679   374            359            2727           291            35928          1.3719584e-12
       101   174.9125           40076   374            360            2792           298            36252          1.3916792e-12
       102   177.77762          40480   374            360            2868           308            36570          1.4117833e-12
       103   180.68016          40862   374            360            2937           321            36870          1.4327655e-12
       104   183.63863          41272   374            360            3013           335            37190          1.4546738e-12
       105   186.64307          41670   374            360            3092           345            37499          1.477076e-12 
       106   189.69562          42067   374            360            3157           363            37813          1.4994033e-12
       107   192.79987          42446   374            360            3227           378            38107          1.5219826e-12
       108   195.91594          42853   374            360            3298           393            38428          1.5447079e-12
       109   199.0633           43230   374            360            3362           418            38716          1.5669298e-12
       110   202.40508          43643   374            360            3433           439            39037          1.5889858e-12
       111   205.69495          44009   374            360            3501           455            39319          1.6105223e-12
       112   209.0386           44423   374            360            3581           476            39632          1.6321357e-12
       113   212.48052          44809   374            360            3634           505            39936          1.6536075e-12
       114   216.05628          45196   374            360            3711           514            40237          1.6755583e-12
       115   219.60544          45587   374            360            3779           543            40531          1.6976881e-12
       116   223.20983          45982   374            360            3852           557            40839          1.7200597e-12
       117   226.8716           46367   374            360            3934           572            41127          1.7428252e-12
       118   230.59278          46767   374            360            4004           591            41438          1.7658152e-12
       119   234.38678          47168   375            360            4090           610            41733          1.7891703e-12
       120   238.36463          47557   375            360            4166           631            42025          1.8132749e-12
       121   242.278            47921   375            360            4235           650            42301          1.8372781e-12
       122   246.23899          48343   376            360            4318           666            42623          1.8616396e-12
       123   250.25715          48738   377            360            4406           683            42912          1.8855385e-12
       124   254.34067          49121   377            360            4485           709            43190          1.9091026e-12
       125   258.51759          49517   377            360            4563           726            43491          1.9325959e-12
       126   262.76504          49910   377            360            4662           742            43769          1.9564276e-12
       127   267.09613          50330   377            360            4747           761            44085          1.9810068e-12
       128   271.51096          50723   377            360            4840           785            44361          2.0060172e-12
       129   275.99971          51115   377            360            4923           810            44645          2.0324683e-12
       130   280.69176          51507   377            360            5000           832            44938          2.0596743e-12
       131   285.32345          51942   377            360            5114           857            45234          2.0879247e-12
       132   290.03866          52333   377            360            5205           875            45516          2.1167064e-12
       133   294.85162          52764   378            360            5314           896            45816          2.1456095e-12
       134   299.69832          53149   378            360            5398           925            46088          2.1746621e-12
       135   304.61517          53576   378            360            5522           950            46366          2.2040112e-12
       136   309.62093          54013   378            360            5619           985            46671          2.2332644e-12
       137   314.71856          54414   378            360            5724           1012           46940          2.2620204e-12
       138   319.90827          54818   379            360            5815           1041           47223          2.2914939e-12
       139   325.19386          55240   379            360            5924           1072           47505          2.3210278e-12
       140   330.72763          55667   379            360            6033           1111           47784          2.3518961e-12
       141   336.21493          56088   379            360            6152           1144           48053          2.3831342e-12
       142   341.79863          56525   379            360            6247           1182           48357          2.4156781e-12
       143   347.43659          56930   379            360            6344           1229           48618          2.4488305e-12
       144   353.15911          57363   380            360            6457           1265           48901          2.4832071e-12
       145   358.96603          57808   381            360            6572           1310           49185          2.519036e-12 
       146   364.89811          58220   381            360            6680           1358           49441          2.5559262e-12
       147   370.92152          58680   381            360            6799           1406           49734          2.5939515e-12
       148   377.06577          59114   382            360            6906           1468           49998          2.6327902e-12
       149   383.29032          59547   382            360            7041           1509           50255          2.672554e-12 
       150   389.74484          60031   382            360            7165           1575           50549          2.7131558e-12
       151   396.1662           60455   383            359            7286           1620           50807          2.755143e-12 
       152   402.71187          60951   383            358            7465           1665           51080          2.7985115e-12
       153   409.30737          61395   383            358            7579           1723           51352          2.8427856e-12
       154   416.03806          61867   383            358            7743           1771           51612          2.8883994e-12
       155   422.84516          62337   383            358            7895           1823           51878          2.93588e-12  
       156   429.72555          62827   383            358            8045           1897           52144          2.9849734e-12
       157   436.71654          63303   384            358            8196           1971           52394          3.0350758e-12
       158   443.83568          63816   384            358            8362           2037           52675          3.0863275e-12
       159   451.04721          64295   384            358            8550           2076           52927          3.1380973e-12
       160   458.51315          64783   386            358            8740           2122           53177          3.1914967e-12
       161   465.9672           65322   386            358            8939           2171           53468          3.2463059e-12
       162   473.52656          65781   386            357            9118           2214           53706          3.303178e-12 
       163   481.2061           66285   386            357            9328           2266           53948          3.3612743e-12
       164   488.97572          66831   386            357            9525           2329           54234          3.4227809e-12
       165   496.86073          67330   386            356            9728           2394           54466          3.4875775e-12
       166   504.84119          67840   386            356            9938           2442           54718          3.5552543e-12
       167   512.95273          68407   387            356            10187          2502           54975          3.6252581e-12
       168   521.16393          68962   387            356            10440          2556           55223          3.6976551e-12
       169   529.55486          69498   388            356            10667          2609           55478          3.7727848e-12
       170   538.216            70083   388            356            10933          2660           55746          3.8527867e-12
       171   546.90446          70652   389            356            11213          2709           55985          3.9389059e-12
       172   555.69251          71253   389            356            11507          2762           56239          4.0341282e-12
       173   564.66088          71925   389            356            11872          2809           56499          4.138964e-12 
       174   573.79672          72533   389            356            12189          2867           56732          4.2539162e-12
       175   583.08998          73205   389            356            12552          2925           56983          4.3765135e-12
       176   592.54242          73895   389            356            12924          2995           57231          4.5029633e-12
       177   602.18347          74610   389            356            13325          3068           57472          4.6297896e-12
       178   611.9805           75303   389            355            13726          3120           57713          4.7668071e-12
       179   621.93174          76014   389            355            14113          3190           57967          4.899342e-12 
       180   632.21276          76779   389            354            14581          3244           58211          5.0326212e-12
       181   642.48643          77527   389            354            15021          3321           58442          5.1718064e-12
       182   652.91921          78261   389            353            15442          3386           58691          5.3101112e-12
       183   663.52862          79045   391            351            15918          3459           58926          5.4552439e-12
       184   674.3014           79825   391            350            16350          3554           59180          5.5951068e-12
       185   685.23875          80579   391            349            16799          3636           59404          5.7457089e-12
       186   696.30585          81413   391            346            17302          3725           59649          5.8987464e-12
       187   707.54084          82212   391            344            17802          3797           59878          6.0440377e-12
       188   718.93804          83021   389            344            18282          3884           60122          6.1933757e-12
       189   730.48104          83797   389            343            18747          3972           60346          6.3408025e-12
       190   742.36715          84637   388            340            19275          4057           60577          6.5016506e-12
       191   754.19326          85455   388            340            19767          4154           60806          6.6594607e-12
       192   766.32133          86319   388            339            20308          4252           61032          6.8360369e-12
       193   778.35607          87208   388            336            20857          4370           61257          7.0101158e-12
       194   790.48569          88087   388            336            21415          4470           61478          7.1931639e-12
       195   802.75713          88980   386            335            21976          4587           61696          7.3612958e-12
       196   815.20453          89865   385            332            22513          4727           61908          7.5405398e-12
       197   827.68739          90749   385            328            23072          4873           62091          7.7213918e-12
       198   840.23311          91656   384            326            23630          5020           62296          7.9145617e-12
       199   852.81956          92604   383            326            24243          5170           62482          8.1227768e-12
       200   865.70837          93599   382            322            24844          5365           62686          8.3198065e-12
       201   878.45089          94523   381            321            25405          5575           62841          8.5246977e-12
       202   891.28785          95470   380            318            25988          5786           62998          8.7374249e-12
       203   904.17691          96458   379            317            26599          5988           63175          8.9490553e-12
       204   917.16492          97443   378            314            27188          6240           63323          9.1526291e-12
       205   930.25092          98380   377            314            27737          6477           63475          9.3498684e-12
       206   943.4058           99345   376            310            28282          6754           63623          9.5474822e-12
       207   956.64748         100295   376            309            28882          6986           63742          9.7527104e-12
       208   969.94921         101170   371            306            29367          7254           63872          9.9439226e-12
       209   983.38468         102203   369            304            30029          7498           64003          1.0155526e-11
       210   997.20295         103086   365            300            30535          7782           64104          1.0338232e-11
       211   1010.8778         103963   363            298            31037          8056           64209          1.0514442e-11
       212   1024.4964         104873   358            295            31598          8306           64316          1.0721863e-11
       213   1038.2424         105755   357            293            32157          8539           64409          1.0884298e-11
       214   1052.0884         106611   355            290            32723          8762           64481          1.1025634e-11
       215   1066.1151         107413   351            286            33226          8987           64563          1.1182639e-11
       216   1080.1104         108154   349            282            33682          9196           64645          1.1302227e-11
       217   1094.2429         108928   344            278            34147          9439           64720          1.1425464e-11
       218   1108.3468         109728   343            271            34678          9650           64786          1.1562234e-11
       219   1122.5439         110392   336            268            35053          9895           64840          1.1646369e-11
       220   1137.2301         111103   330            266            35492          10121          64894          1.1740202e-11
       221   1151.6383         111836   327            261            35969          10338          64941          1.1834264e-11
       222   1166.0982         112508   317            258            36349          10579          65005          1.1919932e-11
       223   1180.6127         113128   310            256            36681          10822          65059          1.1982456e-11
       224   1195.277          113688   301            247            36951          11085          65104          1.2040392e-11
       225   1209.8488         114232   293            239            37211          11348          65141          1.207099e-11 
       226   1224.6014         114929   286            231            37601          11629          65182          1.2117058e-11
       227   1239.3861         115493   278            225            37817          11947          65226          1.2154238e-11
       228   1254.4366         116066   272            216            38057          12258          65263          1.2197112e-11
       229   1269.5399         116525   262            209            38175          12574          65305          1.2210221e-11
       230   1284.8093         117061   257            205            38374          12888          65337          1.2247653e-11
       231   1299.9342         117584   248            197            38580          13193          65366          1.224074e-11 
       232   1315.1513         118094   238            193            38759          13504          65400          1.2250698e-11
       233   1330.4935         118534   233            180            38864          13819          65438          1.2249487e-11
       234   1345.8284         119024   221            167            39007          14153          65476          1.2272477e-11
       235   1361.1398         119515   208            162            39198          14444          65503          1.2267066e-11
       236   1376.7391         119969   199            155            39321          14751          65543          1.2261524e-11
       237   1392.2289         120433   197            136            39464          15060          65576          1.2263962e-11
       238   1407.7966         120900   185            130            39641          15336          65608          1.2260222e-11
       239   1423.4565         121320   177            123            39727          15650          65643          1.2254425e-11
       240   1439.5149         121740   164            118            39778          16010          65670          1.2243567e-11
       241   1455.3031         122186   159            111            39892          16328          65696          1.2254595e-11
       242   1471.1516         122567   148            102            39890          16703          65724          1.2228763e-11
       243   1487.0614         123061   143            98             40034          17027          65759          1.2222531e-11
       244   1502.9394         123432   138            93             40070          17337          65794          1.2209756e-11
       245   1518.9072         123848   128            86             40113          17698          65823          1.2203833e-11
       246   1534.9325         124288   121            79             40173          18061          65854          1.2189425e-11
       247   1551.0588         124705   113            74             40239          18394          65885          1.2191704e-11
       248   1567.2206         125140   107            70             40309          18744          65910          1.2192921e-11
       249   1583.4259         125527   102            64             40324          19103          65934          1.2177271e-11
       250   1600.0471         125925   96             61             40375          19429          65964          1.2164195e-11
       251   1616.4709         126311   90             58             40416          19748          65999          1.2168597e-11
       252   1632.9023         126705   88             55             40444          20083          66035          1.2157814e-11
       253   1649.3468         127128   82             54             40502          20434          66056          1.2154861e-11
       254   1665.9401         127533   74             51             40558          20759          66091          1.2152528e-11
       255   1682.5932         127943   70             48             40651          21059          66115          1.2146177e-11
       256   1699.3189         128276   66             46             40621          21400          66143          1.2139823e-11
       257   1716.1631         128621   63             41             40620          21723          66174          1.2127684e-11
       258   1733.0605         129046   63             40             40724          22022          66197          1.2125839e-11
       259   1749.9769         129428   60             38             40738          22364          66228          1.2115841e-11
       260   1767.3617         129881   58             35             40845          22687          66256          1.2114498e-11
       261   1784.5061         130242   58             35             40866          23006          66277          1.2133113e-11
       262   1801.7446         130592   58             34             40833          23358          66309          1.2121182e-11
       263   1819.0331         130987   56             33             40837          23720          66341          1.2115895e-11
       264   1836.3632         131377   56             31             40817          24114          66359          1.2110517e-11
       265   1853.7192         131787   52             28             40800          24516          66391          1.2114e-11   
       266   1871.1282         132124   51             28             40716          24912          66417          1.2134815e-11
       267   1888.6227         132491   49             27             40687          25289          66439          1.2108986e-11
       268   1906.1699         132831   48             26             40620          25670          66467          1.2122743e-11
       269   1923.7683         133177   48             25             40515          26096          66493          1.2090707e-11
       270   1941.7625         133593   48             24             40460          26549          66512          1.2124825e-11
       271   1959.4907         133981   47             24             40372          26994          66544          1.213244e-11 
       272   1977.2386         134254   47             23             40182          27432          66570          1.2116674e-11
       273   1995.0666         134656   47             23             40091          27904          66591          1.2107702e-11
       274   2012.9436         135043   46             23             40000          28351          66623          1.2108901e-11
       275   2030.8815         135443   45             23             39866          28862          66647          1.2140738e-11
       276   2048.8866         135694   45             23             39594          29361          66671          1.2112743e-11
       277   2066.9927         136083   44             23             39493          29824          66699          1.2142873e-11
       278   2085.128          136409   43             22             39284          30333          66727          1.2131913e-11
       279   2103.3496         136791   43             22             39136          30842          66748          1.2125436e-11
       280   2121.9457         137143   41             22             38968          31334          66778          1.2142425e-11
       281   2140.3097         137498   41             22             38824          31811          66800          1.2159232e-11
       282   2158.7459         137838   41             20             38655          32291          66831          1.2163911e-11
       283   2177.1602         138177   40             20             38478          32784          66855          1.2171876e-11
       284   2195.6911         138529   40             20             38304          33283          66882          1.2175369e-11
       285   2214.3241         138818   39             20             38090          33761          66908          1.2161868e-11
       286   2232.9715         139255   39             20             38048          34214          66934          1.2177861e-11
       287   2251.5326         139500   39             20             37798          34688          66955          1.2193811e-11
       288   2270.4084         139970   39             19             37792          35134          66986          1.222715e-11 
       289   2289.263          140269   38             19             37603          35599          67010          1.223255e-11 
       290   2308.719          140692   37             19             37595          36008          67033          1.2247772e-11
       291   2327.7418         140982   35             18             37418          36448          67063          1.2240439e-11
       292   2346.8242         141312   35             17             37285          36892          67083          1.2240603e-11
       293   2365.9674         141624   35             17             37149          37312          67111          1.2245299e-11
       294   2385.0761         141888   35             17             36981          37727          67128          1.2252554e-11
       295   2404.2412         142292   35             17             36962          38115          67163          1.2273841e-11
       296   2423.4739         142711   35             17             36969          38512          67178          1.2291193e-11
       297   2442.7272         143065   35             17             36890          38913          67210          1.2298387e-11
       298   2462.0385         143284   35             17             36727          39274          67231          1.2311746e-11
       299   2481.5356         143654   34             17             36742          39601          67260          1.2321709e-11
       300   2501.3359         144013   34             17             36715          39964          67283          1.2321709e-11
       301   2520.859          144298   34             17             36590          40347          67310          1.2320192e-11
       302   2540.585          144698   33             17             36589          40726          67333          1.2349965e-11
       303   2560.3745         144961   33             17             36431          41121          67359          1.2330875e-11
       304   2580.0269         145293   33             17             36383          41475          67385          1.2356021e-11
       305   2599.7385         145680   33             17             36351          41871          67408          1.2409975e-11
       306   2619.5445         145984   33             17             36282          42216          67436          1.2398736e-11
       307   2639.4567         146320   33             17             36273          42537          67460          1.2400465e-11
       308   2659.5454         146597   32             17             36195          42867          67486          1.2393369e-11
       309   2679.6676         147037   31             17             36266          43214          67509          1.242742e-11 
       310   2700.0717         147291   31             17             36146          43562          67535          1.242641e-11 
       311   2720.1276         147581   31             17             36096          43879          67558          1.2445924e-11
       312   2740.3339         147862   31             17             36025          44204          67585          1.2415927e-11
       313   2760.5134         148268   31             17             36083          44530          67607          1.2449061e-11
       314   2780.7114         148643   31             17             36128          44833          67634          1.2480974e-11
       315   2800.899          148902   31             17             36019          45179          67656          1.2485885e-11
       316   2821.1941         149162   31             17             35936          45494          67684          1.2471705e-11
       317   2841.6351         149490   31             17             35916          45821          67705          1.2470698e-11
       318   2862.07           149858   31             17             35939          46139          67732          1.2484745e-11
       319   2882.7517         150243   30             17             35980          46460          67756          1.2518855e-11
       320   2903.936          150563   29             17             35956          46780          67781          1.2529273e-11
Loop time of 2903.94 on 16 procs for 320 steps with 150563 atoms

97.4% CPU use with 16 MPI tasks x 1 OpenMP threads

MPI task timing breakdown:
Section |  min time  |  avg time  |  max time  |%varavg| %total
---------------------------------------------------------------
Pair    | 734.95     | 839.11     | 1039.7     | 302.3 | 28.90
Neigh   | 457.5      | 571.97     | 861.35     | 504.8 | 19.70
Comm    | 323.27     | 394.38     | 471.62     | 258.5 | 13.58
Output  | 72.088     | 72.088     | 72.089     |   0.0 |  2.48
Modify  | 485.52     | 1012.2     | 1242       | 746.8 | 34.85
Other   |            | 14.22      |            |       |  0.49

Nlocal:        9410.19 ave       13901 max        7862 min
Histogram: 8 2 2 0 2 0 0 0 0 2
Nghost:           7332 ave        9845 max        6183 min
Histogram: 8 1 1 1 1 0 1 1 0 2
Neighs:        91347.5 ave      106093 max       82957 min
Histogram: 4 1 2 2 3 2 0 0 0 2

Total # of neighbors = 1461560
Ave neighs/atom = 9.7072986
Neighbor list builds = 28071
Dangerous builds = 27751

Total wall time: 0:48:55
