LAMMPS (23 Jun 2022 - Update 4)
  using 1 OpenMP thread(s) per MPI task
package omp 0
using multi-threaded neighbor list subroutines
#-----------------------------------------------------------------------------#
#                NUFEB Simulation: Heterotrophic Biofilm Growth               #
#-----------------------------------------------------------------------------#


#-----------------------------System Settings---------------------------------#

units si                                    # using si units (m, s, kg)
atom_style      coccus                      # using nufeb coccus atom style
atom_modify     map array sort 10 0         # map array - find atoms using indices
		                            # sort every 10

boundary        pp pp ff                    # periodic boundaries in x and y
                                            # fixed boundary in z

newton          off                         # forces between local and ghost
                                            # atoms are computed in each
					     # processor without communication

processors      * * 1                       # processor grid

comm_modify     vel yes                     # communicate velocities for ghost atoms

read_data       atom_ch.in	             # read atom.in file which defines domain size
Reading data file ...
  orthogonal box = (0 0 0) to (6e-05 6e-05 6e-05)
  4 by 4 by 1 MPI processor grid
  reading atoms ...
  150 atoms
  read_data CPU = 0.039 seconds
                                            # and initial atoms


#--------------------Microbes and Functional Groups-------------------------#

group           CROSS1   type 1               # assign type 1,2 atoms to CROSS group
50 atoms in group CROSS1
group           CROSS2   type 2
50 atoms in group CROSS2
group		CHEATER  type 3
50 atoms in group CHEATER
group           dead     type 4
0 atoms in group dead

neighbor        5e-7 bin                   # setting neighbour skin distance and style

neigh_modify    check yes                  # rebuild neighbour list if any atom
                                           # had moved more than half the skin distance


#--------------------------Mesh Grid and Substrates--------------------------#

# defining grid sytle, substrate names, and grid size
grid_style      nufeb/chemostat 3 sub metab1 metab2 5e-6

# set diffusion boundary conditions and initial concentrations (liquid:kg/m3)
grid_modify     set sub      pp pp nd  1.8e-4
No /omp style for force computation currently active
grid_modify     set metab1   pp pp nd  1e-4
No /omp style for force computation currently active
grid_modify     set metab2   pp pp nd  1e-4
No /omp style for force computation currently active


#--------------------------Biological Processes-------------------------------#

# heterotrophs growth
fix growth_cross1 CROSS1 nufeb/growth/cross1 sub 3.5e-5 metab2 4e-3 metab1 growth 0.009 yield 0.6 decay 2.6e-6 metab1_exp 20

fix growth_cross2 CROSS2 nufeb/growth/cross2 sub 3.5e-5 metab1 4e-3 metab2 growth 0.009 yield 0.6 decay 2.6e-6 metab2_exp 20

fix growth_cheater CHEATER nufeb/growth/cheater sub 3.5e-5 metab1 1e-3 metab2 1e-3 growth 0.009 yield 0.6 decay 2.6e-6
# heterotrophs division, division diameter: 1.36e-6
fix div1 CROSS1 nufeb/division/coccus 1.36e-6 272
fix div2 CROSS2 nufeb/division/coccus 1.36e-6 782
fix div3 CHEATER nufeb/division/coccus 1.36e-6 1630

fix death1 CROSS1 nufeb/death/diameter dead 5.43e-7
fix death2 CROSS2 nufeb/death/diameter dead 5.43e-7
fix death3 CHEATER nufeb/death/diameter dead 5.43e-7

#---------------------------Physical Processes--------------------------------#

pair_style  gran/hooke/history 1e-4 NULL 1e-5 NULL 0.0 0    # pairwise interaction
pair_coeff  * *                                             # between atoms

# pairwise interaction between z-wall and atoms
fix wall all wall/gran hooke/history 1e-3 NULL 1e-4 NULL 0 0 zplane 0.0 1e-04

fix vis all viscous 1e-5                                    # viscous damping force

fix grav all gravity 9.81 vector 0.0 0.0 -1.0

fix nve all nve/limit 1e-7                                  # NVE integration with
                                                            # maximum distance limit


#---------------------------Post-Physical Processes---------------------------#

fix coeff_sub all nufeb/diffusion_coeff sub ratio 0.8       # defining diffusion coeff in the biofilm
fix coeff_metab1 all nufeb/diffusion_coeff metab1 ratio 0.8    # region is 80% of the value in liquid
fix coeff_metab2 all nufeb/diffusion_coeff metab2 ratio 0.8

#---------------------------Chemical Processes---------------------------------#

fix diff_sub all nufeb/diffusion_reaction sub 1e-9        # diffusion reaction for updating
fix diff_metab1 all nufeb/diffusion_reaction metab1 4e-9     # distribusion of substrate concentration
fix diff_metab2 all nufeb/diffusion_reaction metab2 4e-9

#--------------------------Computations and Outputs----------------------------#

variable mass equal "mass(all)"                             # total mass
variable ncross1 equal "count(CROSS1)"                      # total # of CROSS1
variable ncross2 equal "count(CROSS2)"                      # total # of CROSS2
variable ncheater equal "count(CHEATER)"
variable ndead equal "count(dead)"

shell mkdir vtk_NEPS_ch                                            # dump vtk files to /vtk folder
dump du1 all vtk 10 vtk_NEPS_ch/dump*.vtu id type diameter         # require build NUFEB with vtk option
dump du2 all grid/vtk 10 vtk_NEPS_ch/dump_%_*.vti con rea den gro

#dump du3 all movie 10 movie.avi type diameter view 80 60    # dump video
#dump_modify du3 acolor 1 blue acolor 2 lightgrey framerate 10


                                                            # dump hdf5 files to /hdf5 folder
#shell mkdir hdf5                                           # require build NUFEB with hdf5 option
#dump du3 all nufeb/hdf5 10 dump.h5 id type x y z vx vy vz fx fy fz radius conc reac

thermo_style custom step cpu atoms v_ncross1 v_ncross2 v_ncheater v_ndead v_mass     # screen and log outputs
thermo 1
thermo_modify   lost ignore

#-----------------------------------Run----------------------------------------#

# issue run command, define timesteps for physical (pairdt) and chemical (diffdt) processes
run_style nufeb diffdt 1e-4 difftol 1e-6 pairdt 1e-2 pairtol 1 pairmax 1000 diffmax 5000

timestep 12000                                               # define biological timesteps (1000s)

run 320                                                    # growing biofilm for 900x1000s
Generated 0 of 6 mixed pair_coeff terms from geometric mixing rule
Last active /omp style is pair_style gran/hooke/history/omp
Neighbor list info ...
  update every 1 steps, delay 10 steps, check yes
  max neighbors/atom: 2000, page size: 100000
  master list distance cutoff = 2.49e-06
  ghost atom cutoff = 2.49e-06
  binsize = 1.245e-06, bins = 49 49 49
  1 neighbor lists, perpetual/occasional/extra = 1 0 0
  (1) pair gran/hooke/history/omp, perpetual
      attributes: half, newton off, size, history, omp
      pair build: half/size/bin/newtoff/omp
      stencil: full/bin/3d
      bin: standard
Per MPI rank memory allocation (min/avg/max) = 11.02 | 11.02 | 11.02 Mbytes
   Step          CPU          Atoms      v_ncross1      v_ncross2      v_ncheater      v_ndead         v_mass    
         0   0                    150   50             50             50             0              1.3295396e-13
         1   0.38544053           273   96             91             86             0              1.9616795e-13
         2   0.75455              436   149            151            136            0              2.2415555e-13
         3   1.0666363            547   172            198            177            0              2.4531117e-13
         4   1.3668394            592   191            211            190            0              2.6415746e-13
         5   1.5734391            630   197            228            205            0              2.8179489e-13
         6   1.710107             661   208            241            212            0              2.9853287e-13
         7   1.8586733            695   215            253            227            0              3.1438452e-13
         8   1.9930727            732   229            267            236            0              3.2923161e-13
         9   2.1215388            771   241            277            253            0              3.4347345e-13
        10   2.2522274            815   247            291            277            0              3.5688863e-13
        11   2.3635822            845   261            299            285            0              3.6971385e-13
        12   2.4700964            869   270            302            297            0              3.8196872e-13
        13   2.578631             895   279            308            308            0              3.9380416e-13
        14   2.671946             931   286            315            330            0              4.0507663e-13
        15   2.7602381            960   297            322            341            0              4.1586547e-13
        16   2.8337314            992   305            329            358            0              4.2612267e-13
        17   2.9197002           1012   306            334            372            0              4.358441e-13 
        18   2.9967619           1030   310            338            382            0              4.4518094e-13
        19   3.0736518           1055   322            343            390            0              4.5416141e-13
        20   3.162434            1075   325            351            399            0              4.6271076e-13
        21   3.2319931           1106   330            358            418            0              4.7088059e-13
        22   3.3055868           1126   333            362            431            0              4.7872197e-13
        23   3.3621239           1145   335            365            445            0              4.8586136e-13
        24   3.433275            1168   341            368            459            0              4.9264782e-13
        25   3.4856921           1193   346            371            476            0              4.9903605e-13
        26   3.5459652           1209   347            372            490            0              5.0533696e-13
        27   3.6082621           1228   349            377            502            0              5.1132651e-13
        28   3.6653371           1241   349            381            511            0              5.1705648e-13
        29   3.7234316           1257   351            381            525            0              5.2250567e-13
        30   7.3945961           1272   353            384            535            0              5.2772387e-13
        31   7.471847            1288   354            388            546            0              5.327002e-13 
        32   7.5434836           1298   355            390            553            0              5.3771446e-13
        33   7.6009647           1311   359            390            562            0              5.4242279e-13
        34   7.6636694           1332   362            391            579            0              5.4695794e-13
        35   7.743395            1340   364            392            584            0              5.5137212e-13
        36   7.8219304           1355   370            394            591            0              5.5569334e-13
        37   7.8997087           1367   371            396            600            0              5.6004055e-13
        38   8.0006507           1378   372            397            609            0              5.6421441e-13
        39   8.1188996           1394   375            399            620            0              5.6846398e-13
        40   8.256626            1414   375            403            636            0              5.7301129e-13
        41   8.3956664           1432   377            404            651            0              5.7768604e-13
        42   8.5450326           1454   380            405            669            0              5.8259323e-13
        43   8.6748468           1469   380            406            683            0              5.8778428e-13
        44   8.7963523           1489   380            407            702            0              5.9308531e-13
        45   8.9191063           1504   381            407            716            0              5.9850359e-13
        46   9.0124325           1521   383            407            731            0              6.0403095e-13
        47   9.1172331           1546   383            407            756            0              6.0930792e-13
        48   9.2147521           1564   384            408            772            0              6.1456475e-13
        49   9.3081486           1585   385            409            791            0              6.197775e-13 
        50   9.4202684           1602   386            411            805            0              6.2482409e-13
        51   9.5089159           1621   389            412            820            0              6.2978428e-13
        52   9.6008718           1641   390            412            838            1              6.3463678e-13
        53   9.7017484           1656   390            412            853            1              6.3937638e-13
        54   9.7946482           1676   391            413            871            1              6.4417785e-13
        55   9.9120377           1693   391            415            886            1              6.4881853e-13
        56   10.074518           1713   391            415            904            3              6.5352989e-13
        57   10.217392           1729   391            415            919            4              6.5865809e-13
        58   10.389047           1747   391            415            934            7              6.639074e-13 
        59   10.591763           1765   393            416            944            12             6.6944522e-13
        60   10.80984            1788   394            417            961            16             6.7547715e-13
        61   11.007501           1820   394            418            985            23             6.8194305e-13
        62   11.207683           1844   394            419            1003           28             6.8867556e-13
        63   11.394768           1871   395            419            1023           34             6.9571181e-13
        64   11.561877           1897   395            420            1038           44             7.0288256e-13
        65   11.708689           1920   396            420            1053           51             7.1003737e-13
        66   11.830023           1945   396            421            1069           59             7.1708042e-13
        67   12.03845            1973   396            421            1091           65             7.2384247e-13
        68   12.14622            1997   396            421            1112           68             7.303997e-13 
        69   12.247725           2019   396            421            1129           73             7.3667377e-13
        70   12.398715           2043   396            421            1150           76             7.4265564e-13
        71   12.574656           2073   396            421            1168           88             7.4840209e-13
        72   12.759735           2097   396            421            1186           94             7.545323e-13 
        73   12.932253           2125   397            422            1206           100            7.6088066e-13
        74   13.150573           2146   397            423            1222           104            7.6718452e-13
        75   13.435102           2175   397            423            1247           108            7.7389761e-13
        76   13.689449           2207   397            423            1272           115            7.8148782e-13
        77   13.965798           2242   397            424            1303           118            7.8960188e-13
        78   14.260615           2274   397            425            1329           123            7.9820078e-13
        79   14.504807           2304   397            425            1356           126            8.0752832e-13
        80   14.757631           2333   397            425            1382           129            8.1700843e-13
        81   14.983743           2369   397            425            1415           132            8.2652204e-13
        82   15.1918             2405   397            425            1444           139            8.3611806e-13
        83   15.41021            2438   397            425            1470           146            8.4553671e-13
        84   15.650467           2480   397            425            1505           153            8.5516674e-13
        85   15.849853           2521   397            425            1537           162            8.6520631e-13
        86   16.120512           2557   397            425            1569           166            8.7502791e-13
        87   16.419735           2608   397            425            1614           172            8.8556386e-13
        88   16.752911           2646   397            425            1646           178            8.9667119e-13
        89   17.104023           2705   397            425            1695           188            9.0899897e-13
        90   17.963792           2755   396            425            1739           195            9.2201741e-13
        91   18.390483           2816   396            426            1795           199            9.3630669e-13
        92   18.754696           2875   396            426            1845           208            9.5150063e-13
        93   19.092759           2937   396            426            1904           211            9.6728274e-13
        94   19.40973            2997   395            426            1954           222            9.834022e-13 
        95   19.702601           3061   395            426            2008           232            9.9960541e-13
        96   19.97926            3128   395            426            2071           236            1.0157173e-12
        97   20.222139           3199   394            426            2136           243            1.0316651e-12
        98   20.472129           3258   394            426            2187           251            1.0471732e-12
        99   20.743473           3334   393            426            2258           257            1.0622268e-12
       100   22.018188           3398   393            426            2317           262            1.0772692e-12
       101   22.347449           3462   392            427            2375           268            1.0923945e-12
       102   22.732009           3536   392            427            2444           273            1.1080171e-12
       103   23.120316           3615   392            427            2515           281            1.1243205e-12
       104   23.501863           3677   391            427            2572           287            1.1417085e-12
       105   23.898731           3749   390            426            2638           295            1.1594854e-12
       106   24.292428           3821   390            425            2703           303            1.1781767e-12
       107   24.685673           3901   390            425            2776           310            1.1973396e-12
       108   25.067543           3985   390            425            2852           318            1.2166626e-12
       109   25.406116           4058   389            422            2922           325            1.2362572e-12
       110   25.808117           4143   388            422            3003           330            1.2554608e-12
       111   26.158704           4224   388            422            3079           335            1.2744554e-12
       112   26.521274           4314   388            422            3164           340            1.2932909e-12
       113   26.898134           4389   387            422            3233           347            1.3120801e-12
       114   27.305164           4483   387            422            3325           349            1.3311433e-12
       115   27.713455           4568   387            423            3403           355            1.3506365e-12
       116   28.122979           4660   387            421            3493           359            1.3705518e-12
       117   28.527829           4745   386            421            3576           362            1.3910335e-12
       118   28.934731           4842   386            421            3671           364            1.4119883e-12
       119   29.340279           4945   386            421            3767           371            1.433651e-12 
       120   29.774714           5046   386            420            3861           379            1.4556287e-12
       121   30.17923            5129   386            420            3934           389            1.477929e-12 
       122   30.550616           5227   386            420            4024           397            1.5002377e-12
       123   30.947139           5326   385            419            4115           407            1.5222405e-12
       124   31.341984           5433   385            419            4209           420            1.5442337e-12
       125   31.757982           5529   385            419            4296           429            1.5660733e-12
       126   32.223386           5633   385            419            4390           439            1.5880016e-12
       127   32.659882           5735   384            419            4487           445            1.6098919e-12
       128   33.117056           5833   384            420            4575           454            1.6321148e-12
       129   33.565675           5930   384            420            4661           465            1.6553831e-12
       130   34.036718           6039   384            420            4746           489            1.6791444e-12
       131   34.48267            6150   384            420            4835           511            1.7038894e-12
       132   34.938579           6262   384            420            4914           544            1.7294989e-12
       133   35.37787            6393   384            419            5017           573            1.7563398e-12
       134   35.846454           6489   384            419            5084           602            1.7836398e-12
       135   36.304483           6629   384            419            5194           632            1.8117632e-12
       136   36.758135           6761   383            419            5299           660            1.8401437e-12
       137   37.217323           6875   383            419            5360           713            1.8684467e-12
       138   37.678244           7020   383            419            5469           749            1.8971014e-12
       139   38.140908           7143   383            419            5547           794            1.9262904e-12
       140   38.662877           7288   383            417            5642           846            1.9555274e-12
       141   39.153054           7434   383            417            5730           904            1.9851935e-12
       142   39.652254           7582   383            417            5826           956            2.0155108e-12
       143   40.138178           7718   383            417            5905           1013           2.046715e-12 
       144   40.63938            7867   383            417            6002           1065           2.0789424e-12
       145   41.140358           8010   383            417            6091           1119           2.1117134e-12
       146   41.636214           8158   383            417            6182           1176           2.1452871e-12
       147   42.159116           8342   383            416            6317           1226           2.179596e-12 
       148   42.675804           8482   383            416            6416           1267           2.214638e-12 
       149   43.200623           8634   383            414            6528           1309           2.2499338e-12
       150   43.765744           8794   383            414            6640           1357           2.2854988e-12
       151   44.339746           8970   383            414            6754           1419           2.3212285e-12
       152   44.899674           9112   383            413            6852           1464           2.3579375e-12
       153   45.448408           9294   383            413            7002           1496           2.3948995e-12
       154   46.022192           9473   383            413            7144           1533           2.4334459e-12
       155   46.589281           9657   383            413            7277           1584           2.4740934e-12
       156   47.205597           9860   383            413            7443           1621           2.5166641e-12
       157   47.784035          10062   383            413            7596           1670           2.5614538e-12
       158   48.338795          10261   382            413            7762           1704           2.6075915e-12
       159   48.921747          10472   382            413            7936           1741           2.6548701e-12
       160   49.5503            10690   382            413            8113           1782           2.7030197e-12
       161   50.144813          10906   382            413            8296           1815           2.7515329e-12
       162   50.74189           11109   382            413            8469           1845           2.8004148e-12
       163   51.378433          11341   382            413            8651           1895           2.8498072e-12
       164   52.05097           11588   382            413            8857           1936           2.901264e-12 
       165   52.782274          11816   382            412            9025           1997           2.9542059e-12
       166   53.494884          12092   382            411            9239           2060           3.0112601e-12
       167   54.180676          12318   382            411            9409           2116           3.0713519e-12
       168   54.921278          12597   382            411            9642           2162           3.1351537e-12
       169   55.68697           12881   382            411            9865           2223           3.2017632e-12
       170   56.518806          13186   382            411            10127          2266           3.2700252e-12
       171   57.338676          13473   382            411            10371          2309           3.3403575e-12
       172   58.239681          13749   382            409            10612          2346           3.4136394e-12
       173   59.194887          14074   382            408            10896          2388           3.4931552e-12
       174   60.124709          14408   381            408            11194          2425           3.5812822e-12
       175   61.198317          14790   381            408            11535          2466           3.6777246e-12
       176   62.368491          15161   381            403            11850          2527           3.7819627e-12
       177   63.725096          15564   380            402            12217          2565           3.8958509e-12
       178   65.204383          15974   380            401            12575          2618           4.0148335e-12
       179   66.895702          16397   380            401            12942          2674           4.1381778e-12
       180   68.830822          16872   380            401            13369          2722           4.2685196e-12
       181   70.793054          17316   380            401            13745          2790           4.3968481e-12
       182   73.022885          17781   380            401            14155          2845           4.5280724e-12
       183   75.305956          18268   380            398            14589          2901           4.659658e-12 
       184   77.642242          18745   379            398            15014          2954           4.7908564e-12
       185   80.000532          19250   379            398            15449          3024           4.9278384e-12
       186   82.392769          19742   379            398            15860          3105           5.0693934e-12
       187   84.832235          20279   379            398            16323          3179           5.2106404e-12
       188   87.318867          20802   378            398            16769          3257           5.3576911e-12
       189   89.860795          21315   378            398            17196          3343           5.4956192e-12
       190   92.522959          21854   378            398            17649          3429           5.6319634e-12
       191   95.117287          22431   378            394            18137          3522           5.7956012e-12
       192   97.760126          22963   377            393            18567          3626           5.9536551e-12
       193   100.42669          23640   377            391            19125          3747           6.1177109e-12
       194   103.11582          24230   376            388            19580          3886           6.2935979e-12
       195   105.80546          24854   376            387            20072          4019           6.4661898e-12
       196   108.50774          25473   376            384            20575          4138           6.6420102e-12
       197   111.2021           26191   374            384            21175          4258           6.8251564e-12
       198   113.92201          26822   374            384            21647          4417           6.9978543e-12
       199   116.67646          27514   374            384            22180          4576           7.1760058e-12
       200   119.46239          28245   373            381            22742          4749           7.3822721e-12
       201   122.15545          28921   371            378            23239          4933           7.5788944e-12
       202   124.85255          29731   370            374            23851          5136           7.7810667e-12
       203   127.5475           30506   368            371            24429          5338           8.0019193e-12
       204   130.27991          31294   364            368            25007          5555           8.1889782e-12
       205   132.97692          32033   362            364            25536          5771           8.3909893e-12
       206   135.68684          32812   355            360            26111          5986           8.6001231e-12
       207   138.39225          33617   353            356            26714          6194           8.8090031e-12
       208   141.07935          34437   345            349            27352          6391           9.023811e-12 
       209   143.80183          35237   341            339            27923          6634           9.2228532e-12
       210   146.64181          36059   336            333            28523          6867           9.4102261e-12
       211   149.40049          36894   327            327            29115          7125           9.6148231e-12
       212   152.12082          37732   323            318            29683          7408           9.8251965e-12
       213   154.87165          38419   312            311            30139          7657           9.9906584e-12
       214   157.6092           39180   303            298            30686          7893           1.0167021e-11
       215   160.35751          40026   294            274            31306          8152           1.0349814e-11
       216   163.13846          40729   279            263            31778          8409           1.0500333e-11
       217   165.91881          41500   269            244            32341          8646           1.0653205e-11
       218   168.69741          42189   257            223            32809          8900           1.0783962e-11
       219   171.4909           42905   237            208            33296          9164           1.0906845e-11
       220   174.39901          43550   219            190            33708          9433           1.1013972e-11
       221   177.24465          44211   192            172            34127          9720           1.1127145e-11
       222   180.08798          44849   166            152            34509          10022          1.1224178e-11
       223   182.95074          45475   147            132            34922          10274          1.1307608e-11
       224   185.85013          46099   130            121            35315          10533          1.1397357e-11
       225   188.738            46677   110            103            35694          10770          1.1478239e-11
       226   191.69308          47302   96             84             36112          11010          1.1529681e-11
       227   194.61996          47869   79             71             36484          11235          1.159123e-11 
       228   197.58937          48306   62             61             36683          11500          1.1633258e-11
       229   200.5739           48897   49             47             37042          11759          1.1671661e-11
       230   203.71794          49390   40             35             37302          12013          1.1698432e-11
       231   206.75299          49919   34             28             37612          12245          1.1741727e-11
       232   209.7915           50346   28             23             37807          12488          1.1762078e-11
       233   212.87532          50781   17             18             37998          12748          1.1758205e-11
       234   215.9448           51246   13             16             38199          13018          1.1778435e-11
       235   219.00842          51813   9              10             38530          13264          1.1808767e-11
       236   222.13133          52185   6              8              38639          13532          1.1801876e-11
       237   225.26508          52626   3              7              38791          13825          1.181118e-11 
       238   228.41272          52983   1              6              38841          14135          1.1799009e-11
       239   231.58538          53474   1              5              39054          14414          1.1828091e-11
       240   234.91995          53911   0              4              39190          14717          1.1829886e-11
       241   238.13322          54326   0              3              39315          15008          1.1845826e-11
       242   241.39095          54676   0              3              39309          15364          1.1816926e-11
       243   244.64918          55171   0              2              39475          15694          1.1822499e-11
       244   247.95025          55468   0              2              39453          16013          1.1809574e-11
       245   251.28738          55880   0              2              39551          16327          1.1806135e-11
       246   254.61434          56281   0              2              39629          16650          1.1794318e-11
       247   257.95496          56633   0              2              39654          16977          1.1810191e-11
       248   261.34886          56997   0              2              39713          17282          1.1772826e-11
       249   264.76548          57443   0              2              39837          17604          1.1776451e-11
       250   268.38177          57827   0              2              39895          17930          1.1791753e-11
       251   271.84014          58138   0              2              39863          18273          1.1772353e-11
       252   275.32271          58536   0              2              39975          18559          1.1770289e-11
       253   278.86395          58888   0              2              40079          18807          1.1765453e-11
       254   282.42208          59262   0              2              40185          19075          1.1755776e-11
       255   285.97413          59601   0              2              40236          19363          1.1739444e-11
       256   289.54041          60053   0              2              40387          19664          1.1770031e-11
       257   293.13885          60406   0              2              40413          19991          1.176204e-11 
       258   296.77935          60638   0              2              40372          20264          1.1724595e-11
       259   300.43879          60985   0              2              40446          20537          1.1721672e-11
       260   304.33208          61369   0              2              40548          20819          1.172403e-11 
       261   308.06197          61801   0              2              40645          21154          1.1738656e-11
       262   311.8299           62122   0              2              40620          21500          1.1726987e-11
       263   315.59998          62431   0              2              40572          21857          1.1709225e-11
       264   319.39995          62744   0              2              40522          22220          1.1706244e-11
       265   323.24529          63081   0              2              40503          22576          1.1708016e-11
       266   327.10571          63413   0              2              40481          22930          1.1686553e-11
       267   330.94524          63864   0              2              40540          23322          1.1711841e-11
       268   334.84407          64148   0              2              40416          23730          1.1689086e-11
       269   338.7722           64492   0              2              40382          24108          1.170061e-11 
       270   342.88851          64814   0              2              40311          24501          1.1702798e-11
       271   346.84349          65162   0              2              40248          24912          1.1715351e-11
       272   350.79424          65444   0              2              40088          25354          1.1693898e-11
       273   354.7288           65879   0              2              40061          25816          1.1713361e-11
       274   358.79216          66102   0              2              39828          26272          1.1696161e-11
       275   362.85555          66482   0              2              39721          26759          1.1694524e-11
       276   366.88537          66759   0              2              39545          27212          1.1685842e-11
       277   370.87453          67119   0              2              39429          27688          1.1702312e-11
       278   374.88982          67495   0              2              39339          28154          1.1717474e-11
       279   378.94736          67781   0              2              39170          28609          1.1696441e-11
       280   383.13886          68103   0              2              39015          29086          1.1720372e-11
       281   387.38944          68300   0              2              38740          29558          1.168417e-11 
       282   391.62256          68678   0              2              38621          30055          1.1678279e-11
       283   395.74758          69080   0              2              38527          30551          1.1712792e-11
       284   399.8813           69318   0              2              38295          31021          1.1702601e-11
       285   404.08329          69628   0              2              38139          31487          1.1713432e-11
       286   408.24365          69958   0              2              38007          31949          1.1745399e-11
       287   412.48348          70353   0              2              37914          32437          1.1760076e-11
       288   416.75974          70623   0              2              37707          32914          1.1743686e-11
       289   421.02504          71029   0              2              37669          33358          1.1773274e-11
       290   425.53147          71175   0              2              37375          33798          1.1761807e-11
       291   429.87602          71522   0              2              37320          34200          1.1787972e-11
       292   434.26049          71881   0              2              37244          34635          1.1786246e-11
       293   438.70827          72175   0              2              37109          35064          1.1788196e-11
       294   443.16853          72513   0              2              37027          35484          1.1805502e-11
       295   447.64814          72848   0              2              36946          35900          1.1833862e-11
       296   452.12558          73149   0              2              36851          36296          1.1851548e-11
       297   456.67598          73398   0              2              36722          36674          1.1851431e-11
       298   461.22642          73747   0              2              36685          37060          1.1855734e-11
       299   465.77557          74040   0              2              36597          37441          1.1863412e-11
       300   470.69821          74439   0              2              36622          37815          1.189884e-11 
       301   475.35297          74706   0              2              36522          38182          1.1910723e-11
       302   480.07923          74960   0              2              36416          38542          1.1913192e-11
       303   484.79794          75321   0              2              36437          38882          1.1915374e-11
       304   489.54897          75572   0              2              36335          39235          1.1928277e-11
       305   494.31701          75921   0              2              36324          39595          1.1940672e-11
       306   499.14087          76236   0              2              36279          39955          1.1960208e-11
       307   504.05144          76457   0              2              36144          40311          1.1929179e-11
       308   508.93873          76725   0              2              36077          40646          1.1936019e-11
       309   513.80123          77071   0              2              36112          40957          1.1951459e-11
       310   518.88598          77376   0              2              36065          41309          1.1973197e-11
       311   523.78447          77625   0              2              35976          41647          1.1967038e-11
       312   528.68737          77975   0              2              35987          41986          1.2000549e-11
       313   533.69321          78234   0              2              35911          42321          1.1992985e-11
       314   538.69338          78533   0              2              35890          42641          1.1994221e-11
       315   543.70823          78867   0              2              35905          42960          1.2017506e-11
       316   548.78056          79130   0              2              35872          43256          1.201913e-11 
       317   553.84565          79385   0              2              35817          43566          1.2014436e-11
       318   558.95585          79706   0              2              35834          43870          1.2029496e-11
       319   564.09465          79982   0              2              35810          44170          1.202848e-11 
       320   569.4858           80365   0              2              35880          44483          1.2070805e-11
Loop time of 569.486 on 16 procs for 320 steps with 80365 atoms

97.7% CPU use with 16 MPI tasks x 1 OpenMP threads

MPI task timing breakdown:
Section |  min time  |  avg time  |  max time  |%varavg| %total
---------------------------------------------------------------
Pair    | 101.28     | 142.24     | 219.6      | 290.2 | 24.98
Neigh   | 17.552     | 35         | 84.073     | 337.4 |  6.15
Comm    | 65.125     | 85.195     | 110.35     | 159.7 | 14.96
Output  | 7.6942     | 7.6944     | 7.6946     |   0.0 |  1.35
Modify  | 141.77     | 275.85     | 349.32     | 368.7 | 48.44
Other   |            | 23.51      |            |       |  4.13

Nlocal:        5022.81 ave        9803 max        3563 min
Histogram: 8 4 0 0 2 0 0 0 0 2
Nghost:        3954.56 ave        6427 max        2832 min
Histogram: 5 4 1 2 0 0 0 2 0 2
Neighs:        39572.2 ave       52153 max       32139 min
Histogram: 2 2 5 1 2 1 1 0 0 2

Total # of neighbors = 633155
Ave neighs/atom = 7.8784919
Neighbor list builds = 4663
Dangerous builds = 397

Total wall time: 0:09:30
