LAMMPS (23 Jun 2022 - Update 4)
  using 1 OpenMP thread(s) per MPI task
package omp 0
using multi-threaded neighbor list subroutines
#-----------------------------------------------------------------------------#
#                NUFEB Simulation: Heterotrophic Biofilm Growth               #
#-----------------------------------------------------------------------------#


#-----------------------------System Settings---------------------------------#

units si                                    # using si units (m, s, kg)
atom_style      coccus                      # using nufeb coccus atom style
atom_modify     map array sort 10 0         # map array - find atoms using indices
		                            # sort every 10

boundary        pp pp ff                    # periodic boundaries in x and y
                                            # fixed boundary in z

newton          off                         # forces between local and ghost
                                            # atoms are computed in each
					     # processor without communication

processors      * * 1                       # processor grid

comm_modify     vel yes                     # communicate velocities for ghost atoms

read_data       atom_ch.in	             # read atom.in file which defines domain size
Reading data file ...
  orthogonal box = (0 0 0) to (6e-05 6e-05 6e-05)
  4 by 4 by 1 MPI processor grid
  reading atoms ...
  150 atoms
  read_data CPU = 0.014 seconds
                                            # and initial atoms


#--------------------Microbes and Functional Groups-------------------------#

group           CROSS1   type 1               # assign type 1,2 atoms to CROSS group
50 atoms in group CROSS1
group           CROSS2   type 2
50 atoms in group CROSS2
group		CHEATER  type 3
50 atoms in group CHEATER
group           dead     type 4
0 atoms in group dead

neighbor        5e-7 bin                   # setting neighbour skin distance and style

neigh_modify    check yes                  # rebuild neighbour list if any atom
                                           # had moved more than half the skin distance


#--------------------------Mesh Grid and Substrates--------------------------#

# defining grid sytle, substrate names, and grid size
grid_style      nufeb/chemostat 3 sub metab1 metab2 5e-6

# set diffusion boundary conditions and initial concentrations (liquid:kg/m3)
grid_modify     set sub      pp pp nd  1.8e-4
No /omp style for force computation currently active
grid_modify     set metab1   pp pp nd  1e-4
No /omp style for force computation currently active
grid_modify     set metab2   pp pp nd  1e-4
No /omp style for force computation currently active


#--------------------------Biological Processes-------------------------------#

# heterotrophs growth
fix growth_cross1 CROSS1 nufeb/growth/cross1 sub 3.5e-5 metab2 4e-3 metab1 growth 0.009 yield 0.6 decay 2.6e-6 metab1_exp 20

fix growth_cross2 CROSS2 nufeb/growth/cross2 sub 3.5e-5 metab1 4e-3 metab2 growth 0.009 yield 0.6 decay 2.6e-6 metab2_exp 20

fix growth_cheater CHEATER nufeb/growth/cheater sub 3.5e-5 metab1 1e-3 metab2 1e-3 growth 0.009 yield 0.6 decay 2.6e-6
# heterotrophs division, division diameter: 1.36e-6
fix div1 CROSS1 nufeb/division/coccus 1.36e-6 887
fix div2 CROSS2 nufeb/division/coccus 1.36e-6 3242
fix div3 CHEATER nufeb/division/coccus 1.36e-6 7165

fix death1 CROSS1 nufeb/death/diameter dead 5.43e-7
fix death2 CROSS2 nufeb/death/diameter dead 5.43e-7
fix death3 CHEATER nufeb/death/diameter dead 5.43e-7

#---------------------------Physical Processes--------------------------------#

pair_style  gran/hooke/history 1e-4 NULL 1e-5 NULL 0.0 0    # pairwise interaction
pair_coeff  * *                                             # between atoms

# pairwise interaction between z-wall and atoms
fix wall all wall/gran hooke/history 1e-3 NULL 1e-4 NULL 0 0 zplane 0.0 1e-04

fix vis all viscous 1e-5                                    # viscous damping force

fix grav all gravity 9.81 vector 0.0 0.0 -1.0

fix nve all nve/limit 1e-7                                  # NVE integration with
                                                            # maximum distance limit


#---------------------------Post-Physical Processes---------------------------#

fix coeff_sub all nufeb/diffusion_coeff sub ratio 0.8       # defining diffusion coeff in the biofilm
fix coeff_metab1 all nufeb/diffusion_coeff metab1 ratio 0.8    # region is 80% of the value in liquid
fix coeff_metab2 all nufeb/diffusion_coeff metab2 ratio 0.8

#---------------------------Chemical Processes---------------------------------#

fix diff_sub all nufeb/diffusion_reaction sub 1e-9        # diffusion reaction for updating
fix diff_metab1 all nufeb/diffusion_reaction metab1 4e-9     # distribusion of substrate concentration
fix diff_metab2 all nufeb/diffusion_reaction metab2 4e-9

#--------------------------Computations and Outputs----------------------------#

variable mass equal "mass(all)"                             # total mass
variable ncross1 equal "count(CROSS1)"                      # total # of CROSS1
variable ncross2 equal "count(CROSS2)"                      # total # of CROSS2
variable ncheater equal "count(CHEATER)"
variable ndead equal "count(dead)"

shell mkdir vtk_NEPS_ch                                            # dump vtk files to /vtk folder
dump du1 all vtk 10 vtk_NEPS_ch/dump*.vtu id type diameter         # require build NUFEB with vtk option
dump du2 all grid/vtk 10 vtk_NEPS_ch/dump_%_*.vti con rea den gro

#dump du3 all movie 10 movie.avi type diameter view 80 60    # dump video
#dump_modify du3 acolor 1 blue acolor 2 lightgrey framerate 10


                                                            # dump hdf5 files to /hdf5 folder
#shell mkdir hdf5                                           # require build NUFEB with hdf5 option
#dump du3 all nufeb/hdf5 10 dump.h5 id type x y z vx vy vz fx fy fz radius conc reac

thermo_style custom step cpu atoms v_ncross1 v_ncross2 v_ncheater v_ndead v_mass     # screen and log outputs
thermo 1
thermo_modify   lost ignore

#-----------------------------------Run----------------------------------------#

# issue run command, define timesteps for physical (pairdt) and chemical (diffdt) processes
run_style nufeb diffdt 1e-4 difftol 1e-6 pairdt 1e-2 pairtol 1 pairmax 1000 diffmax 5000

timestep 12000                                               # define biological timesteps (1000s)

run 320                                                    # growing biofilm for 900x1000s
Generated 0 of 6 mixed pair_coeff terms from geometric mixing rule
Last active /omp style is pair_style gran/hooke/history/omp
Neighbor list info ...
  update every 1 steps, delay 10 steps, check yes
  max neighbors/atom: 2000, page size: 100000
  master list distance cutoff = 2.49e-06
  ghost atom cutoff = 2.49e-06
  binsize = 1.245e-06, bins = 49 49 49
  1 neighbor lists, perpetual/occasional/extra = 1 0 0
  (1) pair gran/hooke/history/omp, perpetual
      attributes: half, newton off, size, history, omp
      pair build: half/size/bin/newtoff/omp
      stencil: full/bin/3d
      bin: standard
Per MPI rank memory allocation (min/avg/max) = 11.02 | 11.02 | 11.02 Mbytes
   Step          CPU          Atoms      v_ncross1      v_ncross2      v_ncheater      v_ndead         v_mass    
         0   0                    150   50             50             50             0              1.3295396e-13
         1   0.38442628           273   96             91             86             0              1.9616795e-13
         2   0.7531861            433   148            149            136            0              2.2379073e-13
         3   1.0684358            533   171            192            170            0              2.4515632e-13
         4   1.3709986            591   189            212            190            0              2.6403397e-13
         5   1.5996596            625   200            222            203            0              2.8178425e-13
         6   1.7564182            653   203            237            213            0              2.9859156e-13
         7   1.9210797            707   223            251            233            0              3.1461942e-13
         8   2.0483933            752   236            264            252            0              3.2986692e-13
         9   2.1777101            778   244            274            260            0              3.4437884e-13
        10   2.3056746            811   252            285            274            0              3.5809238e-13
        11   2.430226             839   258            293            288            0              3.7128901e-13
        12   2.5482352            870   268            300            302            0              3.8385329e-13
        13   2.6532406            900   274            303            323            0              3.9597584e-13
        14   2.7421641            926   282            309            335            0              4.0732357e-13
        15   2.8154174            957   284            322            351            0              4.1785126e-13
        16   2.8919181            983   292            330            361            0              4.2797208e-13
        17   2.9565744           1012   298            335            379            0              4.3738989e-13
        18   3.0197703           1039   302            346            391            0              4.4624142e-13
        19   3.0805441           1062   306            351            405            0              4.5479588e-13
        20   3.1554351           1085   313            355            417            0              4.6295607e-13
        21   3.2269093           1103   318            362            423            0              4.7066265e-13
        22   3.2984599           1128   322            368            438            0              4.7822708e-13
        23   3.3656644           1150   325            370            455            0              4.8540177e-13
        24   3.4371274           1169   331            371            467            0              4.9220427e-13
        25   3.5263919           1184   331            374            479            0              4.9877902e-13
        26   3.5926307           1200   334            377            489            0              5.0499779e-13
        27   3.6535843           1223   341            382            500            0              5.1096228e-13
        28   3.7148487           1242   344            385            513            0              5.1654948e-13
        29   3.7774342           1256   349            385            522            0              5.2180153e-13
        30   3.8780651           1266   350            388            528            0              5.2687348e-13
        31   3.9616072           1282   354            390            538            0              5.318481e-13 
        32   4.0549208           1299   356            392            551            0              5.3678019e-13
        33   4.1261314           1318   356            397            565            0              5.415949e-13 
        34   4.2401897           1329   358            398            573            0              5.4627866e-13
        35   4.3325231           1340   358            399            583            0              5.5107652e-13
        36   4.4450256           1352   359            400            593            0              5.5571322e-13
        37   4.5792932           1374   360            404            610            0              5.6055697e-13
        38   4.7106924           1387   361            406            620            0              5.6560643e-13
        39   4.8546635           1403   362            408            633            0              5.7074794e-13
        40   5.0094823           1423   366            410            647            0              5.7614799e-13
        41   5.1301685           1437   366            411            660            0              5.8175106e-13
        42   5.244432            1463   370            415            678            0              5.8744613e-13
        43   5.3441941           1492   372            416            704            0              5.9314247e-13
        44   5.4468093           1508   373            416            719            0              5.9873511e-13
        45   5.543055            1526   374            419            733            0              6.0422583e-13
        46   5.629204            1555   374            421            760            0              6.0958582e-13
        47   5.7045              1572   377            422            773            0              6.1480158e-13
        48   5.7809267           1593   377            424            792            0              6.1979486e-13
        49   5.8442551           1607   377            424            806            0              6.2465159e-13
        50   5.9836139           1627   377            426            824            0              6.2927357e-13
        51   6.0542224           1654   379            430            845            0              6.3388603e-13
        52   6.1649365           1677   380            430            867            0              6.3822705e-13
        53   6.2887766           1694   381            430            883            0              6.4262166e-13
        54   6.4442686           1712   382            431            898            1              6.4732452e-13
        55   6.6079994           1723   382            431            908            2              6.5215854e-13
        56   6.784448            1746   383            434            927            2              6.5723564e-13
        57   6.9866548           1770   386            434            946            4              6.6258839e-13
        58   7.1918464           1784   388            434            955            7              6.6846379e-13
        59   7.3944018           1816   389            437            978            12             6.7477059e-13
        60   7.5991241           1841   389            437            996            19             6.8143305e-13
        61   7.7660451           1862   390            437            1011           24             6.8830748e-13
        62   7.9297716           1886   390            437            1031           28             6.9517275e-13
        63   8.0598366           1910   391            438            1046           35             7.0201702e-13
        64   8.1776585           1933   392            438            1059           44             7.0867119e-13
        65   8.2888609           1954   392            438            1073           51             7.151207e-13 
        66   8.3905377           1983   392            438            1096           57             7.2137272e-13
        67   8.5090048           2013   392            438            1119           64             7.2734998e-13
        68   8.6233772           2039   392            439            1138           70             7.3333189e-13
        69   8.806501            2054   392            439            1145           78             7.391658e-13 
        70   9.0431292           2076   392            439            1160           85             7.4539124e-13
        71   9.2672234           2098   392            439            1177           90             7.5204785e-13
        72   9.5416129           2118   392            439            1192           95             7.5910414e-13
        73   9.8466348           2156   393            440            1222           101            7.672491e-13 
        74   10.130363           2192   393            440            1252           107            7.7610557e-13
        75   10.416652           2223   393            440            1277           113            7.8555102e-13
        76   10.680956           2258   393            440            1304           121            7.9569312e-13
        77   10.91483            2298   393            440            1336           129            8.0616435e-13
        78   11.130363           2333   393            440            1368           132            8.166894e-13 
        79   11.331545           2372   394            440            1401           137            8.2721458e-13
        80   11.552291           2419   395            440            1445           139            8.3758561e-13
        81   11.743881           2451   395            440            1469           147            8.4793055e-13
        82   11.944686           2497   395            440            1507           155            8.581682e-13 
        83   12.195039           2526   395            440            1532           159            8.6829228e-13
        84   12.461385           2577   395            441            1582           159            8.789831e-13 
        85   12.775311           2629   393            441            1629           166            8.900277e-13 
        86   13.078368           2677   393            441            1666           177            9.016226e-13 
        87   13.442699           2717   393            442            1697           185            9.1388569e-13
        88   13.8128             2769   393            442            1745           189            9.2714886e-13
        89   14.189308           2826   393            442            1796           195            9.4157451e-13
        90   14.538509           2884   393            442            1840           209            9.5679157e-13
        91   14.852764           2955   392            442            1897           224            9.7228001e-13
        92   15.151683           3004   392            442            1937           233            9.8784464e-13
        93   15.446698           3072   392            442            1995           243            1.0033047e-12
        94   15.717515           3134   392            443            2049           250            1.0187206e-12
        95   15.965599           3196   390            443            2099           264            1.0339034e-12
        96   16.244701           3263   389            443            2163           268            1.0487381e-12
        97   16.508529           3327   389            443            2221           274            1.0636856e-12
        98   16.830388           3392   389            444            2274           285            1.0782531e-12
        99   17.184759           3461   389            444            2335           293            1.0935544e-12
       100   17.621152           3526   388            444            2390           304            1.1090728e-12
       101   18.012783           3595   388            444            2457           306            1.1260378e-12
       102   18.412095           3676   388            444            2535           309            1.1438117e-12
       103   18.794059           3744   388            444            2595           317            1.1627323e-12
       104   19.17607            3836   388            444            2684           320            1.1819763e-12
       105   19.52816            3908   388            444            2753           323            1.201341e-12 
       106   19.916542           3988   388            444            2831           325            1.2205628e-12
       107   20.225314           4063   388            444            2904           327            1.2395763e-12
       108   20.558894           4149   387            444            2985           333            1.2581209e-12
       109   20.899491           4228   387            443            3058           340            1.2764074e-12
       110   21.310196           4314   387            443            3138           346            1.2948385e-12
       111   21.69417            4393   387            443            3217           346            1.3135145e-12
       112   22.104219           4490   387            442            3311           350            1.3323301e-12
       113   22.519464           4570   387            442            3389           352            1.3523913e-12
       114   22.931927           4676   387            441            3492           356            1.3737163e-12
       115   23.335305           4766   387            441            3577           361            1.3959956e-12
       116   23.745328           4863   387            441            3669           366            1.4186529e-12
       117   24.156879           4968   387            441            3770           370            1.4414062e-12
       118   24.570472           5064   387            441            3866           370            1.464504e-12 
       119   24.981479           5152   387            441            3953           371            1.487209e-12 
       120   25.430645           5251   387            441            4050           373            1.5097012e-12
       121   25.843154           5372   387            440            4168           377            1.5319819e-12
       122   26.304201           5478   387            440            4269           382            1.5541493e-12
       123   26.748337           5566   387            440            4353           386            1.5768004e-12
       124   27.20107            5660   387            440            4440           393            1.5999754e-12
       125   27.648387           5762   387            440            4536           399            1.6240421e-12
       126   28.111015           5877   387            439            4637           414            1.6484994e-12
       127   28.568795           5979   387            439            4722           431            1.6736819e-12
       128   29.021785           6085   387            438            4807           453            1.6993307e-12
       129   29.488651           6201   387            438            4908           468            1.7253558e-12
       130   29.98283            6318   387            438            5009           484            1.7516272e-12
       131   30.465682           6423   387            438            5084           514            1.7778139e-12
       132   30.895566           6531   387            438            5166           540            1.8037835e-12
       133   31.377026           6662   387            438            5273           564            1.8296262e-12
       134   31.851109           6785   386            437            5361           601            1.8558193e-12
       135   32.333913           6899   386            436            5442           635            1.88346e-12  
       136   32.829562           7032   386            435            5539           672            1.9114049e-12
       137   33.339637           7163   386            435            5630           712            1.9420519e-12
       138   33.830747           7297   386            435            5731           745            1.974075e-12 
       139   34.310587           7453   386            435            5824           808            2.0073018e-12
       140   34.817748           7592   386            435            5915           856            2.042048e-12 
       141   35.280997           7749   386            435            6027           901            2.0776613e-12
       142   35.761034           7885   386            435            6118           946            2.1139544e-12
       143   36.252748           8043   386            435            6228           994            2.1505768e-12
       144   36.777489           8199   386            435            6343           1035           2.187287e-12 
       145   37.287268           8371   386            434            6473           1078           2.2240634e-12
       146   37.787347           8542   386            434            6605           1117           2.261687e-12 
       147   38.32288            8718   386            432            6744           1156           2.299816e-12 
       148   38.889263           8905   385            432            6897           1191           2.3392144e-12
       149   39.447284           9073   385            432            7023           1233           2.3805841e-12
       150   40.045765           9277   385            432            7194           1266           2.4239449e-12
       151   40.630955           9478   385            432            7352           1309           2.4685548e-12
       152   41.234101           9659   385            432            7484           1358           2.5141282e-12
       153   41.802938           9860   385            431            7626           1418           2.5607727e-12
       154   42.377241          10040   385            431            7759           1465           2.6074634e-12
       155   42.974777          10271   385            431            7936           1519           2.655219e-12 
       156   43.606203          10469   385            431            8086           1567           2.7033212e-12
       157   44.238179          10675   385            430            8267           1593           2.7541206e-12
       158   44.906407          10916   385            430            8464           1637           2.8085567e-12
       159   45.561207          11181   385            430            8686           1680           2.8663307e-12
       160   46.295789          11427   385            429            8892           1721           2.9285461e-12
       161   47.00135           11712   385            429            9111           1787           2.9941875e-12
       162   47.703538          11969   385            429            9314           1841           3.0618597e-12
       163   48.407249          12258   385            428            9545           1900           3.1323105e-12
       164   49.159591          12560   385            428            9800           1947           3.2041169e-12
       165   49.961645          12847   385            427            10030          2005           3.280493e-12 
       166   50.859859          13150   385            427            10272          2066           3.3628409e-12
       167   51.841996          13514   385            427            10593          2109           3.4541187e-12
       168   52.97118           13867   385            427            10886          2169           3.5535539e-12
       169   54.117014          14286   385            427            11259          2215           3.6616598e-12
       170   55.389624          14675   385            427            11590          2273           3.7770829e-12
       171   56.81661           15082   385            427            11937          2333           3.8981334e-12
       172   58.406724          15497   385            426            12299          2387           4.0213603e-12
       173   60.069654          15965   385            425            12712          2443           4.1495057e-12
       174   62.10988           16403   384            425            13088          2506           4.276618e-12 
       175   64.259718          16887   384            425            13497          2581           4.4039953e-12
       176   66.476211          17336   384            425            13887          2640           4.5316089e-12
       177   68.746617          17854   384            424            14341          2705           4.6620135e-12
       178   71.058297          18311   384            424            14751          2752           4.8023661e-12
       179   73.444948          18796   384            424            15171          2817           4.9424616e-12
       180   75.943031          19294   384            424            15621          2865           5.085196e-12 
       181   78.386939          19865   384            423            16136          2922           5.2255475e-12
       182   80.903124          20377   384            422            16578          2993           5.3723017e-12
       183   83.434991          20913   383            421            17057          3052           5.5121408e-12
       184   86.018333          21438   382            420            17501          3135           5.6686232e-12
       185   88.639899          22016   382            420            18008          3206           5.8199514e-12
       186   91.293807          22640   382            419            18557          3282           5.9874901e-12
       187   93.961057          23260   382            417            19099          3362           6.1622191e-12
       188   96.629366          23866   382            415            19628          3441           6.3380899e-12
       189   99.296189          24478   382            414            20152          3530           6.5005802e-12
       190   102.03534          25153   381            414            20694          3664           6.6845886e-12
       191   104.72277          25833   380            412            21269          3772           6.8614877e-12
       192   107.41446          26521   379            410            21845          3887           7.0606306e-12
       193   110.07103          27251   378            410            22442          4021           7.2592572e-12
       194   112.75383          28022   377            407            23055          4183           7.4701659e-12
       195   115.43879          28742   376            405            23629          4332           7.6652298e-12
       196   118.11873          29479   376            401            24187          4515           7.8630906e-12
       197   120.79066          30299   376            397            24855          4671           8.0816782e-12
       198   123.48585          31058   373            393            25471          4821           8.2833008e-12
       199   126.18132          31811   372            390            26051          4998           8.4783433e-12
       200   128.91683          32600   371            386            26663          5180           8.7066535e-12
       201   131.62486          33421   367            381            27307          5366           8.8994933e-12
       202   134.3245           34258   363            376            27942          5577           9.1232821e-12
       203   137.02901          35067   355            368            28531          5813           9.3295986e-12
       204   139.72742          35887   353            358            29103          6073           9.5334473e-12
       205   142.46008          36756   349            350            29740          6317           9.7244136e-12
       206   145.17964          37560   345            335            30295          6585           9.9284631e-12
       207   147.89483          38298   337            322            30797          6842           1.0103316e-11
       208   150.63255          39068   333            303            31271          7161           1.0258958e-11
       209   153.37987          39868   315            288            31805          7460           1.0424619e-11
       210   156.23938          40612   298            275            32280          7759           1.05847e-11  
       211   159.00286          41286   281            260            32711          8034           1.0731594e-11
       212   161.7909           42037   266            242            33181          8348           1.0877657e-11
       213   164.59394          42717   251            220            33604          8642           1.0997161e-11
       214   167.43154          43304   228            200            33935          8941           1.1077823e-11
       215   170.26326          43992   208            183            34365          9236           1.1182906e-11
       216   173.11669          44639   192            163            34779          9505           1.1272476e-11
       217   175.99877          45131   176            146            35051          9758           1.1324264e-11
       218   178.83123          45683   155            129            35364          10035          1.139916e-11 
       219   181.70905          46280   126            102            35762          10290          1.1450835e-11
       220   184.73137          46860   103            84             36136          10537          1.1517869e-11
       221   187.68684          47448   90             72             36552          10734          1.1553929e-11
       222   190.64274          47972   73             64             36856          10979          1.1615512e-11
       223   193.61653          48451   63             51             37141          11196          1.1657637e-11
       224   196.60244          48904   45             47             37394          11418          1.1695675e-11
       225   199.60123          49437   41             42             37707          11647          1.1705444e-11
       226   202.67095          49980   32             33             37988          11927          1.1749888e-11
       227   205.77276          50368   20             27             38117          12204          1.1748484e-11
       228   208.86995          50916   13             19             38406          12478          1.1788826e-11
       229   211.97745          51286   6              12             38514          12754          1.1774281e-11
       230   215.1734           51678   6              12             38605          13055          1.1788243e-11
       231   218.33183          52165   3              8              38780          13374          1.1790983e-11
       232   221.50946          52586   3              6              38916          13661          1.1784577e-11
       233   224.69401          53038   2              4              39052          13980          1.1790204e-11
       234   227.92314          53399   2              3              39101          14293          1.1787015e-11
       235   231.16601          53802   2              3              39202          14595          1.1766784e-11
       236   234.41619          54168   1              3              39268          14896          1.1782927e-11
       237   237.69947          54587   0              3              39380          15204          1.179147e-11 
       238   241.01218          55032   0              3              39519          15510          1.178785e-11 
       239   244.38449          55482   0              3              39691          15788          1.1762199e-11
       240   247.91257          55768   0              3              39688          16077          1.1747388e-11
       241   251.31361          56091   0              3              39727          16361          1.17456e-11  
       242   254.73724          56398   0              3              39750          16645          1.1706286e-11
       243   258.19105          56812   0              3              39845          16964          1.1714531e-11
       244   261.70225          57283   0              3              40033          17247          1.1730734e-11
       245   265.25064          57595   0              3              40059          17533          1.1686717e-11
       246   268.80865          57999   0              3              40165          17831          1.1705746e-11
       247   272.39206          58368   0              3              40214          18151          1.1697548e-11
       248   276.02843          58730   0              3              40284          18443          1.1705659e-11
       249   279.7031           59095   0              3              40364          18728          1.1690026e-11
       250   283.57382          59408   0              3              40411          18994          1.1694488e-11
       251   287.2967           59797   0              3              40491          19303          1.167833e-11 
       252   291.0774           60124   0              3              40494          19627          1.1673392e-11
       253   294.87252          60598   0              3              40669          19926          1.1690393e-11
       254   298.73535          60873   0              3              40631          20239          1.1669654e-11
       255   302.60552          61233   0              3              40644          20586          1.1681942e-11
       256   306.50105          61525   0              3              40593          20929          1.1649059e-11
       257   310.45708          61883   0              3              40609          21271          1.1653543e-11
       258   314.43875          62224   0              3              40575          21646          1.1633462e-11
       259   318.43724          62629   0              3              40635          21991          1.1655044e-11
       260   322.6586           62966   0              3              40572          22391          1.1652671e-11
       261   326.73463          63168   0              3              40397          22768          1.1639495e-11
       262   330.84769          63517   0              3              40316          23198          1.1633382e-11
       263   334.98742          63864   0              3              40245          23616          1.1631809e-11
       264   339.1833           64250   0              3              40209          24038          1.1620516e-11
       265   343.32567          64596   0              3              40133          24460          1.163593e-11 
       266   347.4531           64907   0              3              39993          24911          1.163701e-11 
       267   351.61496          65243   0              3              39897          25343          1.1639455e-11
       268   355.8699           65536   0              3              39751          25782          1.1639788e-11
       269   360.16306          65885   0              3              39650          26232          1.1642131e-11
       270   364.63153          66212   0              3              39484          26725          1.1646418e-11
       271   368.96899          66548   0              3              39354          27191          1.1640321e-11
       272   373.49538          66898   0              3              39187          27708          1.1646368e-11
       273   377.90736          67162   0              3              38962          28197          1.1653755e-11
       274   382.3599           67475   0              3              38777          28695          1.165998e-11 
       275   386.73709          67834   0              3              38649          29182          1.1689058e-11
       276   391.24848          68206   0              3              38520          29683          1.169006e-11 
       277   395.82023          68556   0              3              38439          30114          1.1686146e-11
       278   400.33461          68868   0              3              38298          30567          1.1708123e-11
       279   404.89912          69187   0              3              38167          31017          1.1714836e-11
       280   409.69588          69413   0              3              37961          31449          1.1713834e-11
       281   414.31934          69800   0              3              37906          31891          1.1742863e-11
       282   419.04684          70108   0              3              37772          32333          1.1730455e-11
       283   423.7759           70428   0              3              37630          32795          1.1736379e-11
       284   428.57866          70707   0              3              37464          33240          1.1730323e-11
       285   433.41272          71012   0              3              37326          33683          1.1758848e-11
       286   438.26919          71281   0              3              37136          34142          1.1754931e-11
       287   443.12329          71579   0              3              37028          34548          1.1764891e-11
       288   448.06279          71896   0              3              36966          34927          1.175535e-11 
       289   453.0408           72270   0              3              36973          35294          1.1787581e-11
       290   458.19576          72480   0              3              36748          35729          1.1778349e-11
       291   463.18392          72838   0              3              36718          36117          1.1796521e-11
       292   468.32783          73081   0              3              36558          36520          1.1772826e-11
       293   473.41094          73386   0              3              36448          36935          1.1805979e-11
       294   478.49881          73713   0              3              36423          37287          1.1819943e-11
       295   483.67362          74122   0              3              36495          37624          1.1833043e-11
       296   488.89034          74334   0              3              36328          38003          1.1841352e-11
       297   494.08586          74585   0              3              36212          38370          1.1841858e-11
       298   499.33047          74900   0              3              36187          38710          1.185548e-11 
       299   504.59205          75282   0              3              36196          39083          1.1885649e-11
       300   510.1342           75629   0              3              36211          39415          1.1916019e-11
       301   515.47022          75907   0              3              36140          39764          1.1923911e-11
       302   520.94596          76161   0              3              36045          40113          1.1923352e-11
       303   526.4762           76487   0              3              36045          40439          1.1954763e-11
       304   532.02264          76753   0              3              35985          40765          1.1938834e-11
       305   537.62451          77062   0              3              35953          41106          1.1953624e-11
       306   543.2351           77320   0              3              35872          41445          1.1933848e-11
       307   548.83617          77649   0              3              35871          41775          1.1967716e-11
       308   554.53199          77907   0              3              35797          42107          1.1966105e-11
       309   560.24347          78181   0              3              35769          42409          1.198572e-11 
       310   566.20331          78536   0              3              35783          42750          1.2008988e-11
       311   572.04158          78881   0              3              35826          43052          1.2030014e-11
       312   577.93054          79132   0              3              35742          43387          1.2044516e-11
       313   583.80749          79443   0              3              35744          43696          1.2044177e-11
       314   589.73454          79746   0              3              35707          44036          1.2045781e-11
       315   595.71676          79978   0              3              35645          44330          1.204852e-11 
       316   601.6883           80322   0              3              35677          44642          1.2066563e-11
       317   607.76833          80595   0              3              35641          44951          1.2066411e-11
       318   613.8632           80839   0              3              35597          45239          1.2059344e-11
       319   620.02686          81190   0              3              35638          45549          1.2088121e-11
       320   626.36921          81414   0              3              35552          45859          1.2097382e-11
Loop time of 626.37 on 16 procs for 320 steps with 81414 atoms

97.5% CPU use with 16 MPI tasks x 1 OpenMP threads

MPI task timing breakdown:
Section |  min time  |  avg time  |  max time  |%varavg| %total
---------------------------------------------------------------
Pair    | 128.99     | 170.07     | 245.85     | 258.2 | 27.15
Neigh   | 20.147     | 38.115     | 87.073     | 330.1 |  6.09
Comm    | 80.447     | 106.8      | 141.66     | 187.8 | 17.05
Output  | 2.5622     | 2.5623     | 2.5629     |   0.0 |  0.41
Modify  | 144.36     | 285.17     | 364.73     | 386.4 | 45.53
Other   |            | 23.65      |            |       |  3.78

Nlocal:        5088.38 ave        9559 max        3683 min
Histogram: 10 0 2 0 2 0 0 0 0 2
Nghost:        3954.44 ave        6324 max        2939 min
Histogram: 8 2 0 2 0 0 1 1 0 2
Neighs:        41516.4 ave       53079 max       34338 min
Histogram: 2 2 4 2 2 0 2 0 0 2

Total # of neighbors = 664262
Ave neighs/atom = 8.1590636
Neighbor list builds = 4839
Dangerous builds = 411

Total wall time: 0:10:45
