LAMMPS (23 Jun 2022 - Update 4)
  using 1 OpenMP thread(s) per MPI task
package omp 0
using multi-threaded neighbor list subroutines
#-----------------------------------------------------------------------------#
#                NUFEB Simulation: Heterotrophic Biofilm Growth               #
#-----------------------------------------------------------------------------#


#-----------------------------System Settings---------------------------------#

units si                                    # using si units (m, s, kg)
atom_style      coccus                      # using nufeb coccus atom style
atom_modify     map array sort 10 0         # map array - find atoms using indices
		                            # sort every 10

boundary        pp pp ff                    # periodic boundaries in x and y
                                            # fixed boundary in z

newton          off                         # forces between local and ghost
                                            # atoms are computed in each
					     # processor without communication

processors      * * 1                       # processor grid

comm_modify     vel yes                     # communicate velocities for ghost atoms

read_data       atom_ch.in	             # read atom.in file which defines domain size
Reading data file ...
  orthogonal box = (0 0 0) to (6e-05 6e-05 6e-05)
  4 by 4 by 1 MPI processor grid
  reading atoms ...
  150 atoms
  read_data CPU = 0.014 seconds
                                            # and initial atoms


#--------------------Microbes and Functional Groups-------------------------#

group           CROSS1   type 1               # assign type 1,2 atoms to CROSS group
50 atoms in group CROSS1
group           CROSS2   type 2
50 atoms in group CROSS2
group		CHEATER  type 3
50 atoms in group CHEATER
group           dead     type 4
0 atoms in group dead

neighbor        5e-7 bin                   # setting neighbour skin distance and style

neigh_modify    check yes                  # rebuild neighbour list if any atom
                                           # had moved more than half the skin distance


#--------------------------Mesh Grid and Substrates--------------------------#

# defining grid sytle, substrate names, and grid size
grid_style      nufeb/chemostat 3 sub metab1 metab2 5e-6

# set diffusion boundary conditions and initial concentrations (liquid:kg/m3)
grid_modify     set sub      pp pp nd  1.8e-4
No /omp style for force computation currently active
grid_modify     set metab1   pp pp nd  1e-4
No /omp style for force computation currently active
grid_modify     set metab2   pp pp nd  1e-4
No /omp style for force computation currently active


#--------------------------Biological Processes-------------------------------#

# heterotrophs growth
fix growth_cross1 CROSS1 nufeb/growth/cross1 sub 3.5e-5 metab2 4e-3 metab1 growth 0.009 yield 0.6 decay 2.6e-6 metab1_exp 20

fix growth_cross2 CROSS2 nufeb/growth/cross2 sub 3.5e-5 metab1 4e-3 metab2 growth 0.009 yield 0.6 decay 2.6e-6 metab2_exp 20

fix growth_cheater CHEATER nufeb/growth/cheater sub 3.5e-5 metab1 1e-3 metab2 1e-3 growth 0.009 yield 0.6 decay 2.6e-6
# heterotrophs division, division diameter: 1.36e-6
fix div1 CROSS1 nufeb/division/coccus 1.36e-6 944
fix div2 CROSS2 nufeb/division/coccus 1.36e-6 3470
fix div3 CHEATER nufeb/division/coccus 1.36e-6 7678

fix death1 CROSS1 nufeb/death/diameter dead 5.43e-7
fix death2 CROSS2 nufeb/death/diameter dead 5.43e-7
fix death3 CHEATER nufeb/death/diameter dead 5.43e-7

#---------------------------Physical Processes--------------------------------#

pair_style  gran/hooke/history 1e-4 NULL 1e-5 NULL 0.0 0    # pairwise interaction
pair_coeff  * *                                             # between atoms

# pairwise interaction between z-wall and atoms
fix wall all wall/gran hooke/history 1e-3 NULL 1e-4 NULL 0 0 zplane 0.0 1e-04

fix vis all viscous 1e-5                                    # viscous damping force

fix grav all gravity 9.81 vector 0.0 0.0 -1.0

fix nve all nve/limit 1e-7                                  # NVE integration with
                                                            # maximum distance limit


#---------------------------Post-Physical Processes---------------------------#

fix coeff_sub all nufeb/diffusion_coeff sub ratio 0.8       # defining diffusion coeff in the biofilm
fix coeff_metab1 all nufeb/diffusion_coeff metab1 ratio 0.8    # region is 80% of the value in liquid
fix coeff_metab2 all nufeb/diffusion_coeff metab2 ratio 0.8

#---------------------------Chemical Processes---------------------------------#

fix diff_sub all nufeb/diffusion_reaction sub 1e-9        # diffusion reaction for updating
fix diff_metab1 all nufeb/diffusion_reaction metab1 4e-9     # distribusion of substrate concentration
fix diff_metab2 all nufeb/diffusion_reaction metab2 4e-9

#--------------------------Computations and Outputs----------------------------#

variable mass equal "mass(all)"                             # total mass
variable ncross1 equal "count(CROSS1)"                      # total # of CROSS1
variable ncross2 equal "count(CROSS2)"                      # total # of CROSS2
variable ncheater equal "count(CHEATER)"
variable ndead equal "count(dead)"

shell mkdir vtk_NEPS_ch                                            # dump vtk files to /vtk folder
dump du1 all vtk 10 vtk_NEPS_ch/dump*.vtu id type diameter         # require build NUFEB with vtk option
dump du2 all grid/vtk 10 vtk_NEPS_ch/dump_%_*.vti con rea den gro

#dump du3 all movie 10 movie.avi type diameter view 80 60    # dump video
#dump_modify du3 acolor 1 blue acolor 2 lightgrey framerate 10


                                                            # dump hdf5 files to /hdf5 folder
#shell mkdir hdf5                                           # require build NUFEB with hdf5 option
#dump du3 all nufeb/hdf5 10 dump.h5 id type x y z vx vy vz fx fy fz radius conc reac

thermo_style custom step cpu atoms v_ncross1 v_ncross2 v_ncheater v_ndead v_mass     # screen and log outputs
thermo 1
thermo_modify   lost ignore

#-----------------------------------Run----------------------------------------#

# issue run command, define timesteps for physical (pairdt) and chemical (diffdt) processes
run_style nufeb diffdt 1e-4 difftol 1e-6 pairdt 1e-2 pairtol 1 pairmax 1000 diffmax 5000

timestep 12000                                               # define biological timesteps (1000s)

run 320                                                    # growing biofilm for 900x1000s
Generated 0 of 6 mixed pair_coeff terms from geometric mixing rule
Last active /omp style is pair_style gran/hooke/history/omp
Neighbor list info ...
  update every 1 steps, delay 10 steps, check yes
  max neighbors/atom: 2000, page size: 100000
  master list distance cutoff = 2.49e-06
  ghost atom cutoff = 2.49e-06
  binsize = 1.245e-06, bins = 49 49 49
  1 neighbor lists, perpetual/occasional/extra = 1 0 0
  (1) pair gran/hooke/history/omp, perpetual
      attributes: half, newton off, size, history, omp
      pair build: half/size/bin/newtoff/omp
      stencil: full/bin/3d
      bin: standard
Per MPI rank memory allocation (min/avg/max) = 11.02 | 11.02 | 11.02 Mbytes
   Step          CPU          Atoms      v_ncross1      v_ncross2      v_ncheater      v_ndead         v_mass    
         0   0                    150   50             50             50             0              1.3295396e-13
         1   0.38604503           273   96             91             86             0              1.9616795e-13
         2   0.76669183           433   151            146            136            0              2.2400381e-13
         3   1.0564496            545   176            195            174            0              2.4596839e-13
         4   1.3471131            591   187            215            189            0              2.6492993e-13
         5   1.5356776            635   201            229            205            0              2.8250136e-13
         6   1.6981982            662   207            236            219            0              2.9899899e-13
         7   1.8363511            703   223            253            227            0              3.1486194e-13
         8   1.9636561            738   238            263            237            0              3.2997358e-13
         9   2.0882601            771   242            276            253            0              3.4425938e-13
        10   2.2547986            804   248            287            269            0              3.5790096e-13
        11   2.3929786            849   262            297            290            0              3.7105629e-13
        12   2.5133746            876   269            303            304            0              3.8377824e-13
        13   2.6125816            900   277            308            315            0              3.9586601e-13
        14   2.7069982            926   281            316            329            0              4.0703498e-13
        15   2.7821533            955   288            325            342            0              4.1760311e-13
        16   2.8740075            983   294            329            360            0              4.277757e-13 
        17   2.978938            1004   299            333            372            0              4.3748126e-13
        18   3.0632688           1029   310            337            382            0              4.4652109e-13
        19   3.1323571           1051   313            344            394            0              4.5485255e-13
        20   3.2159625           1075   322            350            403            0              4.6271951e-13
        21   3.3108523           1104   327            354            423            0              4.702586e-13 
        22   3.4057984           1117   332            357            428            0              4.7736099e-13
        23   3.4659008           1134   337            359            438            0              4.8400048e-13
        24   3.5293178           1155   342            362            451            0              4.90233e-13  
        25   3.5861936           1172   346            366            460            0              4.9614477e-13
        26   3.6425973           1195   349            370            476            0              5.0182297e-13
        27   3.7014303           1211   351            375            485            0              5.0722453e-13
        28   3.7508974           1226   356            376            494            0              5.1238288e-13
        29   3.8126484           1245   360            379            506            0              5.1725555e-13
        30   3.9549953           1263   365            381            517            0              5.2185505e-13
        31   4.0584049           1275   366            385            524            0              5.2631854e-13
        32   4.1704224           1291   370            387            534            0              5.3038949e-13
        33   4.2418538           1308   375            392            541            0              5.3413663e-13
        34   4.3054634           1326   379            395            552            0              5.3763084e-13
        35   4.3817888           1339   381            395            563            0              5.4087491e-13
        36   4.4958052           1354   383            400            571            0              5.4386716e-13
        37   4.6086584           1367   385            403            579            0              5.4674348e-13
        38   4.6891879           1374   387            404            583            0              5.494488e-13 
        39   4.7538308           1385   391            407            587            0              5.5199541e-13
        40   4.8319431           1396   393            409            594            0              5.5433711e-13
        41   4.8958872           1412   397            415            600            0              5.5660118e-13
        42   5.0110463           1422   400            418            604            0              5.5886229e-13
        43   5.1260105           1435   403            420            612            0              5.6119454e-13
        44   5.2610928           1453   410            423            620            0              5.6355201e-13
        45   5.3880375           1464   410            428            626            0              5.661521e-13 
        46   5.5163172           1481   411            432            638            0              5.6891633e-13
        47   5.6476092           1495   413            434            648            0              5.7186177e-13
        48   5.7720407           1509   414            436            659            0              5.7504074e-13
        49   5.9071528           1528   418            441            669            0              5.7843088e-13
        50   6.0445763           1546   419            444            683            0              5.8214641e-13
        51   6.1428202           1557   420            445            692            0              5.8593768e-13
        52   6.2565728           1581   420            449            711            1              5.8976698e-13
        53   6.3447347           1597   420            451            725            1              5.9376566e-13
        54   6.4332055           1609   420            454            733            2              5.9772817e-13
        55   6.5300354           1622   420            455            745            2              6.0176756e-13
        56   6.6069078           1642   421            456            763            2              6.0582317e-13
        57   6.6882074           1661   421            458            777            5              6.0975017e-13
        58   6.7717005           1677   422            462            787            6              6.1364914e-13
        59   6.8653306           1692   423            463            798            8              6.1753162e-13
        60   6.9939516           1703   424            463            801            15             6.2147385e-13
        61   7.1415901           1721   426            464            814            17             6.2579257e-13
        62   7.3126121           1736   427            465            823            21             6.3047459e-13
        63   7.5617815           1756   427            467            835            27             6.3577224e-13
        64   7.8341619           1778   427            470            850            31             6.4161714e-13
        65   8.1157094           1798   427            473            859            39             6.4773095e-13
        66   8.4177655           1830   428            476            881            45             6.5476837e-13
        67   8.727213            1856   429            479            897            51             6.6232297e-13
        68   8.9730301           1883   429            486            906            62             6.6988574e-13
        69   9.1811131           1917   429            491            928            69             6.7765756e-13
        70   9.3739676           1946   429            496            945            76             6.8547963e-13
        71   9.5410241           1976   429            501            963            83             6.9327121e-13
        72   9.6910928           2012   429            506            986            91             7.0104428e-13
        73   9.8334976           2047   429            510            1012           96             7.0871843e-13
        74   9.9687375           2071   429            512            1024           106            7.1634024e-13
        75   10.096952           2093   429            515            1036           113            7.2381037e-13
        76   10.202044           2130   430            519            1052           129            7.3113227e-13
        77   10.319693           2166   432            522            1076           136            7.3821204e-13
        78   10.440351           2198   432            526            1094           146            7.4522987e-13
        79   10.564923           2229   432            527            1117           153            7.5210345e-13
        80   10.779258           2267   432            532            1145           158            7.589882e-13 
        81   10.982892           2291   432            531            1163           165            7.6635281e-13
        82   11.227803           2320   432            534            1183           171            7.7403975e-13
        83   11.451192           2349   432            536            1200           181            7.8247347e-13
        84   11.691265           2383   432            538            1227           186            7.9123474e-13
        85   11.946144           2416   432            539            1250           195            8.0035269e-13
        86   12.196883           2458   432            540            1286           200            8.1003079e-13
        87   12.417877           2492   432            542            1316           202            8.2018591e-13
        88   12.614616           2530   432            542            1349           207            8.3042974e-13
        89   12.82445            2561   432            542            1374           213            8.4056339e-13
        90   13.047593           2602   432            543            1412           215            8.5091201e-13
        91   13.236726           2645   432            542            1448           223            8.6139192e-13
        92   13.449567           2687   432            542            1484           229            8.7179733e-13
        93   13.623612           2727   432            542            1520           233            8.824049e-13 
        94   13.874467           2772   432            540            1564           236            8.929252e-13 
        95   14.139085           2813   432            540            1601           240            9.0414659e-13
        96   14.447067           2855   432            541            1637           245            9.157718e-13 
        97   14.783827           2910   432            541            1689           248            9.2838025e-13
        98   15.143264           2960   432            543            1732           253            9.4208342e-13
        99   15.492729           3024   432            544            1791           257            9.5680645e-13
       100   15.868217           3081   432            545            1840           264            9.7249933e-13
       101   16.217175           3134   432            543            1889           270            9.8905821e-13
       102   16.563556           3201   432            542            1953           274            1.0063542e-12
       103   16.878134           3282   432            539            2027           284            1.0241641e-12
       104   17.176336           3342   432            538            2079           293            1.0423039e-12
       105   17.459665           3421   432            539            2153           297            1.0603778e-12
       106   17.713472           3500   432            540            2229           299            1.0783358e-12
       107   17.981433           3573   432            542            2299           300            1.0960794e-12
       108   18.251478           3649   432            542            2371           304            1.113601e-12 
       109   18.577302           3735   432            540            2450           313            1.1309509e-12
       110   18.903725           3807   431            540            2515           321            1.1488904e-12
       111   19.241122           3871   431            539            2574           327            1.1667351e-12
       112   19.603115           3950   431            538            2650           331            1.1848755e-12
       113   19.975004           4029   431            538            2723           337            1.2035909e-12
       114   20.343936           4113   431            537            2798           347            1.2229692e-12
       115   20.713639           4200   431            535            2883           351            1.2427551e-12
       116   21.073716           4276   431            535            2955           355            1.2630571e-12
       117   21.396352           4351   430            535            3021           365            1.283436e-12 
       118   21.718201           4443   430            532            3111           370            1.3036091e-12
       119   21.986879           4536   430            531            3195           380            1.3235743e-12
       120   22.318556           4605   429            531            3259           386            1.342945e-12 
       121   22.612407           4699   429            531            3351           388            1.3621198e-12
       122   22.935535           4780   429            530            3432           389            1.380918e-12 
       123   23.288904           4864   428            530            3515           391            1.3995978e-12
       124   23.632766           4960   427            529            3606           398            1.4186742e-12
       125   24.011569           5039   427            529            3682           401            1.4379809e-12
       126   24.399614           5124   425            528            3763           408            1.4578367e-12
       127   24.79814            5217   425            528            3853           411            1.4783524e-12
       128   25.18693            5322   425            527            3957           413            1.5003314e-12
       129   25.566102           5418   425            527            4052           414            1.5229018e-12
       130   25.977956           5517   425            527            4149           416            1.5458896e-12
       131   26.370247           5606   425            527            4234           420            1.5693068e-12
       132   26.732794           5693   425            526            4317           425            1.5929322e-12
       133   27.066732           5812   425            526            4426           435            1.6164454e-12
       134   27.45292            5907   425            526            4513           443            1.6395793e-12
       135   27.83044            6018   425            525            4619           449            1.6627251e-12
       136   28.234592           6143   425            522            4737           459            1.6857749e-12
       137   28.635156           6271   425            521            4854           471            1.710559e-12 
       138   29.042231           6384   425            520            4954           485            1.735731e-12 
       139   29.456426           6485   424            519            5046           496            1.7617908e-12
       140   29.872625           6610   422            519            5152           517            1.789302e-12 
       141   30.274859           6731   422            517            5251           541            1.8175964e-12
       142   30.675784           6849   422            515            5344           568            1.8465995e-12
       143   31.077412           7001   421            515            5471           594            1.8760454e-12
       144   31.479289           7129   420            513            5575           621            1.905566e-12 
       145   31.874224           7270   420            512            5687           651            1.9349446e-12
       146   32.257962           7417   420            512            5788           697            1.9639818e-12
       147   32.667336           7554   417            512            5894           731            1.9927476e-12
       148   33.101094           7688   416            512            5986           774            2.0217852e-12
       149   33.526694           7850   415            511            6110           814            2.0514395e-12
       150   33.982215           7979   415            510            6194           860            2.0822563e-12
       151   34.426943           8121   415            509            6289           908            2.1143866e-12
       152   34.88109            8278   415            509            6392           962            2.1480665e-12
       153   35.331568           8425   415            509            6492           1009           2.1827204e-12
       154   35.771284           8596   415            508            6613           1060           2.2183367e-12
       155   36.228473           8758   415            507            6722           1114           2.2545093e-12
       156   36.691779           8913   412            506            6827           1168           2.2907072e-12
       157   37.153301           9091   410            503            6956           1222           2.3272993e-12
       158   37.650914           9257   409            502            7072           1274           2.3639351e-12
       159   38.120533           9413   408            502            7185           1318           2.4018164e-12
       160   38.631246           9593   408            499            7323           1363           2.4411587e-12
       161   39.105748           9768   408            497            7454           1409           2.4821336e-12
       162   39.612195           9943   408            497            7574           1464           2.5245188e-12
       163   40.102544          10146   408            496            7729           1513           2.5687415e-12
       164   40.609775          10343   408            492            7875           1568           2.6140688e-12
       165   41.111178          10540   408            492            8037           1603           2.6602761e-12
       166   41.636384          10736   406            491            8193           1646           2.7068354e-12
       167   42.181177          10939   406            489            8344           1700           2.7536431e-12
       168   42.747782          11165   406            488            8516           1755           2.8013573e-12
       169   43.313246          11387   405            485            8693           1804           2.8509896e-12
       170   43.906641          11616   402            484            8862           1868           2.9032133e-12
       171   44.47045           11829   401            483            9028           1917           2.9593316e-12
       172   45.055435          12089   399            481            9237           1972           3.0186635e-12
       173   45.649124          12356   398            481            9463           2014           3.0819623e-12
       174   46.245348          12623   397            481            9675           2070           3.1483058e-12
       175   46.880296          12880   396            481            9875           2128           3.2157097e-12
       176   47.555368          13161   395            481            10105          2180           3.2853344e-12
       177   48.266782          13441   394            478            10332          2237           3.3582935e-12
       178   48.966938          13743   394            478            10585          2286           3.4361933e-12
       179   49.788307          14058   394            477            10845          2342           3.5205875e-12
       180   50.686268          14401   393            477            11130          2401           3.6136709e-12
       181   51.562792          14772   393            475            11447          2457           3.7147164e-12
       182   52.479328          15148   393            474            11765          2516           3.8256033e-12
       183   53.664033          15573   392            473            12129          2579           3.9461029e-12
       184   54.903047          16023   392            471            12531          2629           4.0754042e-12
       185   56.304248          16461   391            469            12928          2673           4.2074638e-12
       186   57.896351          16928   391            466            13337          2734           4.3422435e-12
       187   59.5933            17384   390            464            13731          2799           4.4776761e-12
       188   61.322974          17860   390            463            14143          2864           4.6050442e-12
       189   63.108989          18336   387            461            14555          2933           4.7412563e-12
       190   64.994246          18810   384            458            14949          3019           4.8771703e-12
       191   66.888675          19328   383            455            15389          3101           5.0204218e-12
       192   68.866417          19873   379            449            15860          3185           5.1692112e-12
       193   70.863176          20378   378            446            16294          3260           5.3211622e-12
       194   72.932422          20882   377            443            16726          3336           5.4583502e-12
       195   75.048295          21421   377            441            17192          3411           5.6083872e-12
       196   77.222612          21968   376            440            17645          3507           5.7565704e-12
       197   79.467111          22557   375            440            18138          3604           5.9185881e-12
       198   81.730473          23128   373            433            18616          3706           6.0734995e-12
       199   84.023237          23760   372            428            19168          3792           6.2556595e-12
       200   86.422217          24395   370            425            19691          3909           6.4338845e-12
       201   88.813226          25105   366            420            20276          4043           6.6129222e-12
       202   91.190982          25702   365            416            20732          4189           6.7895541e-12
       203   93.572776          26375   360            413            21293          4309           6.9583312e-12
       204   95.974957          27084   356            411            21871          4446           7.1451303e-12
       205   98.391611          27803   351            409            22498          4545           7.3522517e-12
       206   100.82697          28522   345            404            23071          4702           7.5520867e-12
       207   103.25234          29275   338            400            23680          4857           7.7617639e-12
       208   105.70332          30018   334            394            24264          5026           7.9620777e-12
       209   108.12952          30811   329            382            24901          5199           8.157228e-12 
       210   110.65166          31577   325            371            25499          5382           8.3564277e-12
       211   113.14553          32377   314            359            26148          5556           8.5839121e-12
       212   115.60555          33089   305            353            26696          5735           8.768781e-12 
       213   118.06979          33995   297            347            27441          5910           8.9818125e-12
       214   120.5535           34783   281            341            28039          6122           9.1807537e-12
       215   123.03365          35550   270            327            28594          6359           9.3881865e-12
       216   125.49345          36325   255            310            29141          6619           9.6002974e-12
       217   127.98823          37195   243            288            29832          6832           9.7877689e-12
       218   130.48903          38012   235            271            30434          7072           9.9675734e-12
       219   132.97765          38830   214            259            31015          7342           1.0158126e-11
       220   135.56788          39611   201            244            31586          7580           1.0343526e-11
       221   138.12733          40280   185            238            32002          7855           1.0486342e-11
       222   140.64951          41102   166            216            32544          8176           1.0646217e-11
       223   143.17397          41749   146            201            32902          8500           1.0765903e-11
       224   145.73002          42476   127            182            33380          8787           1.0904107e-11
       225   148.27489          43145   106            165            33776          9098           1.1029431e-11
       226   150.85534          43765   96             140            34126          9403           1.1118454e-11
       227   153.45719          44524   84             130            34623          9687           1.1237645e-11
       228   156.05575          45051   72             112            34900          9967           1.1313871e-11
       229   158.64508          45676   56             95             35302          10223          1.1401906e-11
       230   161.39962          46248   50             74             35641          10483          1.1461787e-11
       231   164.0219           46832   38             57             36028          10709          1.1535669e-11
       232   166.69108          47336   34             45             36333          10924          1.1568533e-11
       233   169.37672          47976   27             35             36766          11148          1.1663741e-11
       234   172.09498          48489   18             28             37098          11345          1.1684166e-11
       235   174.81864          49006   12             23             37445          11526          1.1715918e-11
       236   177.56152          49402   10             19             37672          11701          1.1724435e-11
       237   180.30844          49942   6              13             38023          11900          1.1754569e-11
       238   183.09999          50505   2              11             38346          12146          1.1806514e-11
       239   185.92828          50906   2              6              38492          12406          1.1798827e-11
       240   188.89903          51311   1              3              38651          12656          1.1800015e-11
       241   191.74661          51771   1              2              38828          12940          1.1820761e-11
       242   194.66585          52225   0              2              38971          13252          1.1808704e-11
       243   197.60873          52669   0              2              39104          13563          1.180918e-11 
       244   200.54941          53103   0              1              39222          13880          1.1811381e-11
       245   203.57737          53488   0              0              39261          14227          1.1817558e-11
       246   206.61769          53892   0              0              39322          14570          1.1827437e-11
       247   209.64543          54332   0              0              39412          14920          1.1813205e-11
       248   212.67919          54724   0              0              39478          15246          1.181233e-11 
       249   215.76855          55140   0              0              39566          15574          1.1792014e-11
       250   218.98313          55550   0              0              39624          15926          1.1781381e-11
       251   222.11941          55920   0              0              39688          16232          1.1779213e-11
       252   225.24376          56382   0              0              39843          16539          1.1788997e-11
       253   228.45404          56652   0              0              39810          16842          1.1761405e-11
       254   231.66923          56998   0              0              39854          17144          1.1751719e-11
       255   234.87678          57348   0              0              39919          17429          1.1751332e-11
       256   238.11565          57802   0              0              40086          17716          1.1736439e-11
       257   241.38837          58155   0              0              40153          18002          1.1741538e-11
       258   244.66603          58585   0              0              40294          18291          1.1737272e-11
       259   248.0077           58868   0              0              40269          18599          1.1711607e-11
       260   251.48793          59189   0              0              40282          18907          1.1717087e-11
       261   254.888            59579   0              0              40389          19190          1.1709099e-11
       262   258.34239          59996   0              0              40513          19483          1.1710267e-11
       263   261.78926          60339   0              0              40562          19777          1.1707622e-11
       264   265.35136          60613   0              0              40523          20090          1.1675654e-11
       265   268.86476          61017   0              0              40597          20420          1.1695681e-11
       266   272.41956          61378   0              0              40615          20763          1.1693622e-11
       267   276.0089           61763   0              0              40674          21089          1.1703974e-11
       268   279.64364          62106   0              0              40673          21433          1.1687598e-11
       269   283.30629          62411   0              0              40623          21788          1.16738e-11  
       270   287.19555          62728   0              0              40579          22149          1.16859e-11  
       271   290.95221          63046   0              0              40533          22513          1.1677595e-11
       272   294.74525          63534   0              0              40652          22882          1.1710653e-11
       273   298.61369          63847   0              0              40597          23250          1.1694558e-11
       274   302.48876          64118   0              0              40454          23664          1.1674234e-11
       275   306.36512          64333   0              0              40251          24082          1.1640056e-11
       276   310.25077          64790   0              0              40284          24506          1.1683509e-11
       277   314.21413          65119   0              0              40179          24940          1.1673668e-11
       278   318.08798          65512   0              0              40113          25399          1.1693739e-11
       279   322.09601          65768   0              0              39947          25821          1.1668444e-11
       280   326.24096          66127   0              0              39842          26285          1.1690164e-11
       281   330.36207          66414   0              0              39672          26742          1.1675634e-11
       282   334.47747          66781   0              0              39561          27220          1.1690107e-11
       283   338.58347          67076   0              0              39383          27693          1.1679748e-11
       284   342.6266           67431   0              0              39275          28156          1.1703869e-11
       285   346.88701          67705   0              0              39090          28615          1.1688792e-11
       286   351.11223          68093   0              0              39009          29084          1.1712969e-11
       287   355.3503           68396   0              0              38818          29578          1.1712743e-11
       288   359.69527          68636   0              0              38589          30047          1.1702662e-11
       289   363.95046          69045   0              0              38545          30500          1.1718991e-11
       290   368.41347          69383   0              0              38392          30991          1.1732895e-11
       291   372.86593          69641   0              0              38162          31479          1.1717902e-11
       292   377.2653           70010   0              0              38060          31950          1.1742254e-11
       293   381.74203          70205   0              0              37820          32385          1.1740445e-11
       294   386.27212          70552   0              0              37707          32845          1.1742834e-11
       295   390.87196          70884   0              0              37561          33323          1.1767603e-11
       296   395.39921          71259   0              0              37472          33787          1.1770313e-11
       297   399.92148          71539   0              0              37330          34209          1.1788949e-11
       298   404.69482          71793   0              0              37119          34674          1.1761018e-11
       299   409.26406          72142   0              0              37045          35097          1.1790895e-11
       300   414.20015          72397   0              0              36883          35514          1.1773997e-11
       301   418.91042          72745   0              0              36830          35915          1.1788099e-11
       302   423.76013          73071   0              0              36759          36312          1.1806484e-11
       303   428.46435          73386   0              0              36646          36740          1.1825882e-11
       304   433.27309          73620   0              0              36487          37133          1.1835451e-11
       305   438.17203          73936   0              0              36426          37510          1.183494e-11 
       306   443.05559          74292   0              0              36410          37882          1.1862272e-11
       307   447.99545          74584   0              0              36332          38252          1.1873933e-11
       308   452.94294          74888   0              0              36280          38608          1.1896325e-11
       309   457.99006          75153   0              0              36168          38985          1.1899676e-11
       310   463.30302          75436   0              0              36061          39375          1.1896509e-11
       311   468.42112          75828   0              0              36099          39729          1.1921311e-11
       312   473.59768          76045   0              0              35995          40050          1.1909257e-11
       313   478.7732           76335   0              0              35964          40371          1.1910425e-11
       314   483.92527          76689   0              0              35992          40697          1.194351e-11 
       315   489.13709          76983   0              0              35974          41009          1.1945877e-11
       316   494.37709          77279   0              0              35951          41328          1.1961168e-11
       317   499.6596           77554   0              0              35895          41659          1.1972793e-11
       318   505.02342          77851   0              0              35873          41978          1.1980403e-11
       319   510.44809          78155   0              0              35865          42290          1.1986874e-11
       320   516.09679          78425   0              0              35820          42605          1.1979786e-11
Loop time of 516.097 on 16 procs for 320 steps with 78425 atoms

97.4% CPU use with 16 MPI tasks x 1 OpenMP threads

MPI task timing breakdown:
Section |  min time  |  avg time  |  max time  |%varavg| %total
---------------------------------------------------------------
Pair    | 109.41     | 142.98     | 192.75     | 247.3 | 27.70
Neigh   | 17.833     | 33.158     | 65.928     | 300.0 |  6.42
Comm    | 73.759     | 95.493     | 126.53     | 196.2 | 18.50
Output  | 2.2892     | 2.2893     | 2.2896     |   0.0 |  0.44
Modify  | 119.96     | 223.51     | 289.29     | 394.0 | 43.31
Other   |            | 18.66      |            |       |  3.62

Nlocal:        4901.56 ave        7691 max        3574 min
Histogram: 7 4 0 1 0 0 0 0 0 4
Nghost:        3858.88 ave        6005 max        2815 min
Histogram: 4 7 1 0 0 0 0 0 0 4
Neighs:        38116.8 ave       46817 max       32161 min
Histogram: 4 0 2 6 0 0 0 0 0 4

Total # of neighbors = 609869
Ave neighs/atom = 7.7764616
Neighbor list builds = 4500
Dangerous builds = 387

Total wall time: 0:08:55
