LAMMPS (23 Jun 2022 - Update 4)
  using 1 OpenMP thread(s) per MPI task
package omp 0
using multi-threaded neighbor list subroutines
#-----------------------------------------------------------------------------#
#                NUFEB Simulation: Heterotrophic Biofilm Growth               #
#-----------------------------------------------------------------------------#


#-----------------------------System Settings---------------------------------#

units si                                    # using si units (m, s, kg)
atom_style      coccus                      # using nufeb coccus atom style
atom_modify     map array sort 10 0         # map array - find atoms using indices
		                            # sort every 10

boundary        pp pp ff                    # periodic boundaries in x and y
                                            # fixed boundary in z

newton          off                         # forces between local and ghost
                                            # atoms are computed in each
					     # processor without communication

processors      * * 1                       # processor grid

comm_modify     vel yes                     # communicate velocities for ghost atoms

read_data       atom_ch.in	             # read atom.in file which defines domain size
Reading data file ...
  orthogonal box = (0 0 0) to (6e-05 6e-05 6e-05)
  4 by 4 by 1 MPI processor grid
  reading atoms ...
  150 atoms
  read_data CPU = 0.024 seconds
                                            # and initial atoms


#--------------------Microbes and Functional Groups-------------------------#

group           CROSS1   type 1               # assign type 1,2 atoms to CROSS group
50 atoms in group CROSS1
group           CROSS2   type 2
50 atoms in group CROSS2
group		CHEATER  type 3
50 atoms in group CHEATER
group           dead     type 4
0 atoms in group dead

neighbor        5e-7 bin                   # setting neighbour skin distance and style

neigh_modify    check yes                  # rebuild neighbour list if any atom
                                           # had moved more than half the skin distance


#--------------------------Mesh Grid and Substrates--------------------------#

# defining grid sytle, substrate names, and grid size
grid_style      nufeb/chemostat 3 sub metab1 metab2 5e-6

# set diffusion boundary conditions and initial concentrations (liquid:kg/m3)
grid_modify     set sub      pp pp nd  1.8e-4
No /omp style for force computation currently active
grid_modify     set metab1   pp pp nd  1e-4
No /omp style for force computation currently active
grid_modify     set metab2   pp pp nd  1e-4
No /omp style for force computation currently active


#--------------------------Biological Processes-------------------------------#

# heterotrophs growth
fix growth_cross1 CROSS1 nufeb/growth/cross1 sub 3.5e-5 metab2 4e-3 metab1 growth 0.009 yield 0.6 decay 2.6e-6 metab1_exp 20

fix growth_cross2 CROSS2 nufeb/growth/cross2 sub 3.5e-5 metab1 4e-3 metab2 growth 0.009 yield 0.6 decay 2.6e-6 metab2_exp 20

fix growth_cheater CHEATER nufeb/growth/cheater sub 3.5e-5 metab1 1e-3 metab2 1e-3 growth 0.009 yield 0.6 decay 2.6e-6
# heterotrophs division, division diameter: 1.36e-6
fix div1 CROSS1 nufeb/division/coccus 1.36e-6 224
fix div2 CROSS2 nufeb/division/coccus 1.36e-6 590
fix div3 CHEATER nufeb/division/coccus 1.36e-6 1198

fix death1 CROSS1 nufeb/death/diameter dead 5.43e-7
fix death2 CROSS2 nufeb/death/diameter dead 5.43e-7
fix death3 CHEATER nufeb/death/diameter dead 5.43e-7

#---------------------------Physical Processes--------------------------------#

pair_style  gran/hooke/history 1e-4 NULL 1e-5 NULL 0.0 0    # pairwise interaction
pair_coeff  * *                                             # between atoms

# pairwise interaction between z-wall and atoms
fix wall all wall/gran hooke/history 1e-3 NULL 1e-4 NULL 0 0 zplane 0.0 1e-04

fix vis all viscous 1e-5                                    # viscous damping force

fix grav all gravity 9.81 vector 0.0 0.0 -1.0

fix nve all nve/limit 1e-7                                  # NVE integration with
                                                            # maximum distance limit


#---------------------------Post-Physical Processes---------------------------#

fix coeff_sub all nufeb/diffusion_coeff sub ratio 0.8       # defining diffusion coeff in the biofilm
fix coeff_metab1 all nufeb/diffusion_coeff metab1 ratio 0.8    # region is 80% of the value in liquid
fix coeff_metab2 all nufeb/diffusion_coeff metab2 ratio 0.8

#---------------------------Chemical Processes---------------------------------#

fix diff_sub all nufeb/diffusion_reaction sub 1e-9        # diffusion reaction for updating
fix diff_metab1 all nufeb/diffusion_reaction metab1 4e-9     # distribusion of substrate concentration
fix diff_metab2 all nufeb/diffusion_reaction metab2 4e-9

#--------------------------Computations and Outputs----------------------------#

variable mass equal "mass(all)"                             # total mass
variable ncross1 equal "count(CROSS1)"                      # total # of CROSS1
variable ncross2 equal "count(CROSS2)"                      # total # of CROSS2
variable ncheater equal "count(CHEATER)"
variable ndead equal "count(dead)"

shell mkdir vtk_NEPS_ch                                            # dump vtk files to /vtk folder
dump du1 all vtk 10 vtk_NEPS_ch/dump*.vtu id type diameter         # require build NUFEB with vtk option
dump du2 all grid/vtk 10 vtk_NEPS_ch/dump_%_*.vti con rea den gro

#dump du3 all movie 10 movie.avi type diameter view 80 60    # dump video
#dump_modify du3 acolor 1 blue acolor 2 lightgrey framerate 10


                                                            # dump hdf5 files to /hdf5 folder
#shell mkdir hdf5                                           # require build NUFEB with hdf5 option
#dump du3 all nufeb/hdf5 10 dump.h5 id type x y z vx vy vz fx fy fz radius conc reac

thermo_style custom step cpu atoms v_ncross1 v_ncross2 v_ncheater v_ndead v_mass     # screen and log outputs
thermo 1
thermo_modify   lost ignore

#-----------------------------------Run----------------------------------------#

# issue run command, define timesteps for physical (pairdt) and chemical (diffdt) processes
run_style nufeb diffdt 1e-4 difftol 1e-6 pairdt 1e-2 pairtol 1 pairmax 1000 diffmax 5000

timestep 12000                                               # define biological timesteps (1000s)

run 320                                                    # growing biofilm for 900x1000s
Generated 0 of 6 mixed pair_coeff terms from geometric mixing rule
Last active /omp style is pair_style gran/hooke/history/omp
Neighbor list info ...
  update every 1 steps, delay 10 steps, check yes
  max neighbors/atom: 2000, page size: 100000
  master list distance cutoff = 2.49e-06
  ghost atom cutoff = 2.49e-06
  binsize = 1.245e-06, bins = 49 49 49
  1 neighbor lists, perpetual/occasional/extra = 1 0 0
  (1) pair gran/hooke/history/omp, perpetual
      attributes: half, newton off, size, history, omp
      pair build: half/size/bin/newtoff/omp
      stencil: full/bin/3d
      bin: standard
Per MPI rank memory allocation (min/avg/max) = 11.02 | 11.02 | 11.02 Mbytes
   Step          CPU          Atoms      v_ncross1      v_ncross2      v_ncheater      v_ndead         v_mass    
         0   0                    150   50             50             50             0              1.3295396e-13
         1   0.39262587           273   96             91             86             0              1.9616795e-13
         2   0.77349054           436   150            150            136            0              2.2406339e-13
         3   1.0760938            552   171            204            177            0              2.4533023e-13
         4   1.3666845            589   185            215            189            0              2.6421489e-13
         5   1.5479777            632   197            229            206            0              2.8170729e-13
         6   1.7287965            661   208            239            214            0              2.9839613e-13
         7   1.868195             695   217            252            226            0              3.1409408e-13
         8   1.988017             726   226            260            240            0              3.2892173e-13
         9   2.1051445            764   235            273            256            0              3.429194e-13 
        10   2.2316259            798   246            283            269            0              3.5628507e-13
        11   2.3411567            833   253            297            283            0              3.6886759e-13
        12   2.4602211            857   260            306            291            0              3.8072867e-13
        13   2.5464172            885   269            311            305            0              3.9193495e-13
        14   2.6219508            921   282            319            320            0              4.0249632e-13
        15   2.6920067            949   289            326            334            0              4.1252263e-13
        16   2.7633913            974   295            335            344            0              4.220996e-13 
        17   2.8351104            998   299            339            360            0              4.3118582e-13
        18   2.9171918           1021   303            342            376            0              4.3979001e-13
        19   2.9860799           1046   310            349            387            0              4.4799896e-13
        20   3.0770017           1067   317            354            396            0              4.5585172e-13
        21   3.1407649           1088   322            360            406            0              4.6332735e-13
        22   3.1962249           1102   325            363            414            0              4.7042412e-13
        23   3.2895311           1122   327            367            428            0              4.7716943e-13
        24   3.3698516           1146   332            374            440            0              4.837045e-13 
        25   3.4255407           1166   336            378            452            0              4.8992125e-13
        26   3.4905675           1181   336            381            464            0              4.9585696e-13
        27   3.5647045           1198   340            384            474            0              5.0154256e-13
        28   3.6343618           1219   345            386            488            0              5.0702956e-13
        29   3.699417            1232   345            389            498            0              5.1222508e-13
        30   3.7782216           1253   349            391            513            0              5.172515e-13 
        31   3.8378447           1269   354            393            522            0              5.2205336e-13
        32   3.8987518           1280   357            395            528            0              5.2673845e-13
        33   3.9550293           1288   358            397            533            0              5.3125983e-13
        34   4.0073436           1301   359            398            544            0              5.3559413e-13
        35   4.0573308           1313   363            399            551            0              5.3975778e-13
        36   4.1316988           1334   363            402            569            0              5.4367174e-13
        37   4.2074032           1347   365            404            578            0              5.4767887e-13
        38   4.2831495           1358   365            404            589            0              5.5158637e-13
        39   4.3360101           1368   368            404            596            0              5.5547092e-13
        40   4.4411239           1386   370            404            612            0              5.592273e-13 
        41   4.5369623           1404   373            406            625            0              5.6301492e-13
        42   4.6327114           1416   375            406            635            0              5.6690201e-13
        43   4.7488939           1432   376            407            649            0              5.707981e-13 
        44   4.8746522           1449   378            409            662            0              5.7489521e-13
        45   4.9855802           1466   380            409            677            0              5.7925018e-13
        46   5.1107268           1477   384            409            684            0              5.8378259e-13
        47   5.2302883           1491   385            409            697            0              5.884529e-13 
        48   5.3539054           1508   385            409            714            0              5.9327998e-13
        49   5.4813356           1525   387            410            728            0              5.9827352e-13
        50   5.6151957           1541   388            410            743            0              6.0338453e-13
        51   5.723346            1562   389            411            762            0              6.0855489e-13
        52   5.8214337           1579   389            411            779            0              6.1372376e-13
        53   5.9129789           1599   389            411            799            0              6.1881799e-13
        54   6.0046605           1616   389            411            815            1              6.2383222e-13
        55   6.0799128           1633   390            411            830            2              6.2882299e-13
        56   6.154103            1648   391            411            844            2              6.3365328e-13
        57   6.2185183           1671   391            411            864            5              6.383338e-13 
        58   6.2951423           1686   391            411            878            6              6.4276789e-13
        59   6.3624602           1703   391            411            893            8              6.4722613e-13
        60   6.4884942           1720   391            411            905            13             6.5145475e-13
        61   6.6117055           1735   391            411            917            16             6.5586712e-13
        62   6.7556351           1752   392            411            927            22             6.604569e-13 
        63   6.8523402           1772   392            411            943            26             6.6518085e-13
        64   7.0150646           1784   393            411            946            34             6.6981483e-13
        65   7.223078            1809   395            411            963            40             6.7491796e-13
        66   7.4218147           1823   395            411            967            50             6.8060543e-13
        67   7.6194762           1851   397            411            988            55             6.8674135e-13
        68   7.8230299           1872   397            411            1003           61             6.9328108e-13
        69   7.9971401           1899   397            411            1019           72             7.0021061e-13
        70   8.1785428           1926   397            411            1036           82             7.0730423e-13
        71   8.3493764           1946   398            411            1046           91             7.1438535e-13
        72   8.4833734           1980   398            411            1075           96             7.2153425e-13
        73   8.6110188           2005   398            411            1095           101            7.2844899e-13
        74   8.7320474           2027   398            411            1112           106            7.3520544e-13
        75   8.838964            2057   399            412            1132           114            7.4178427e-13
        76   8.939368            2076   399            412            1142           123            7.4813255e-13
        77   9.0410545           2101   399            412            1160           130            7.5422589e-13
        78   9.1495435           2127   399            412            1183           133            7.6011466e-13
        79   9.2469591           2149   399            412            1197           141            7.6593921e-13
        80   9.4172291           2176   399            412            1218           147            7.7152038e-13
        81   9.5611224           2204   399            412            1241           152            7.7732819e-13
        82   9.7820453           2228   399            412            1263           154            7.8322844e-13
        83   10.004677           2259   399            412            1291           157            7.8962799e-13
        84   10.283919           2280   400            412            1306           162            7.9658486e-13
        85   10.571077           2307   400            412            1325           170            8.0424348e-13
        86   10.831785           2336   400            412            1352           172            8.1275022e-13
        87   11.136583           2374   400            412            1382           180            8.216442e-13 
        88   11.40595            2414   400            412            1417           185            8.3135898e-13
        89   11.665454           2444   399            412            1443           190            8.4143313e-13
        90   11.900191           2484   399            412            1480           193            8.5168267e-13
        91   12.104166           2531   399            412            1519           201            8.6187161e-13
        92   12.297283           2566   399            413            1548           206            8.7196154e-13
        93   12.486557           2608   400            413            1584           211            8.819154e-13 
        94   12.675151           2659   400            413            1630           216            8.9170745e-13
        95   12.889598           2701   400            414            1668           219            9.015487e-13 
        96   13.11118            2741   400            414            1701           226            9.1129492e-13
        97   13.314264           2783   399            414            1739           231            9.2105261e-13
        98   13.550788           2822   398            414            1770           240            9.3085196e-13
        99   13.789906           2868   397            414            1813           244            9.4084945e-13
       100   14.082064           2905   397            414            1843           251            9.5102657e-13
       101   14.377301           2956   397            414            1889           256            9.613297e-13 
       102   14.750271           2993   395            414            1917           267            9.7227909e-13
       103   15.062942           3050   394            414            1964           278            9.8430207e-13
       104   15.430838           3103   394            414            2011           284            9.968612e-13 
       105   15.747322           3157   394            414            2059           290            1.0102226e-12
       106   16.089566           3200   394            414            2099           293            1.0238745e-12
       107   16.412893           3270   394            414            2162           300            1.0380834e-12
       108   16.735161           3324   394            414            2210           306            1.0525152e-12
       109   17.037779           3384   393            414            2263           314            1.0671046e-12
       110   17.347985           3455   393            414            2327           321            1.0818225e-12
       111   17.602462           3523   393            414            2387           329            1.0963435e-12
       112   17.847296           3588   393            414            2451           330            1.1105189e-12
       113   18.137815           3648   393            414            2509           332            1.12432e-12  
       114   18.449343           3712   393            414            2569           336            1.1383787e-12
       115   18.711118           3780   393            414            2635           338            1.1522185e-12
       116   18.998802           3845   393            414            2698           340            1.1658736e-12
       117   19.320475           3910   393            414            2758           345            1.1795608e-12
       118   19.706656           3971   393            414            2816           348            1.1934965e-12
       119   20.056554           4030   393            414            2871           352            1.2079044e-12
       120   20.462692           4104   393            414            2939           358            1.2226312e-12
       121   20.82671            4183   393            413            3018           359            1.2379376e-12
       122   21.204686           4256   393            413            3086           364            1.2536901e-12
       123   21.641329           4326   393            413            3150           370            1.269896e-12 
       124   21.993953           4396   393            412            3219           372            1.2864006e-12
       125   22.358948           4472   393            412            3288           379            1.3029796e-12
       126   22.723495           4549   393            411            3360           385            1.3198192e-12
       127   23.096699           4625   393            411            3433           388            1.3369304e-12
       128   23.450737           4716   393            410            3520           393            1.3539959e-12
       129   23.819299           4796   393            410            3594           399            1.3711807e-12
       130   24.232108           4881   393            410            3674           404            1.3885227e-12
       131   24.61986            4965   393            408            3749           415            1.4061786e-12
       132   25.028426           5049   393            408            3824           424            1.4238595e-12
       133   25.437335           5146   393            408            3906           439            1.4422977e-12
       134   25.845669           5239   393            408            3987           451            1.4614095e-12
       135   26.247531           5336   393            408            4068           467            1.4811456e-12
       136   26.650265           5420   393            408            4140           479            1.5012382e-12
       137   27.053436           5518   393            408            4224           493            1.521905e-12 
       138   27.434168           5613   393            407            4292           521            1.5430019e-12
       139   27.830866           5721   393            407            4369           552            1.5640496e-12
       140   28.241165           5821   393            407            4443           578            1.5849891e-12
       141   28.589827           5909   393            407            4502           607            1.6057708e-12
       142   29.001202           6023   393            407            4591           632            1.6261302e-12
       143   29.414298           6133   393            407            4672           661            1.646716e-12 
       144   29.847304           6221   393            407            4735           686            1.6671958e-12
       145   30.283736           6339   393            407            4826           713            1.6882657e-12
       146   30.725759           6438   393            407            4888           750            1.7100413e-12
       147   31.186227           6537   393            407            4954           783            1.7324317e-12
       148   31.639982           6649   393            407            5030           819            1.7562943e-12
       149   32.106189           6771   393            407            5128           843            1.7808799e-12
       150   32.618304           6885   393            407            5205           880            1.8067149e-12
       151   33.097906           7020   393            407            5301           919            1.8335006e-12
       152   33.570405           7153   393            407            5395           958            1.8609032e-12
       153   34.043787           7271   393            407            5470           1001           1.8885586e-12
       154   34.508092           7396   393            406            5560           1037           1.9163727e-12
       155   34.973297           7530   393            406            5650           1081           1.9439624e-12
       156   35.443561           7675   393            406            5745           1131           1.971973e-12 
       157   35.914791           7826   393            405            5850           1178           2.0000472e-12
       158   36.393969           7951   393            405            5937           1216           2.0283813e-12
       159   36.921079           8101   393            405            6048           1255           2.0575347e-12
       160   37.463713           8243   393            405            6156           1289           2.0877745e-12
       161   37.984143           8399   393            404            6279           1323           2.1191046e-12
       162   38.494501           8565   393            404            6400           1368           2.1520052e-12
       163   39.002902           8725   393            404            6523           1405           2.1862983e-12
       164   39.517705           8878   393            404            6649           1432           2.221811e-12 
       165   40.025464           9053   393            404            6790           1466           2.2576845e-12
       166   40.544794           9233   393            404            6931           1505           2.2938745e-12
       167   41.088886           9406   392            404            7059           1551           2.3300294e-12
       168   41.672308           9575   392            404            7188           1591           2.3664682e-12
       169   42.245218           9758   392            404            7320           1642           2.4027743e-12
       170   42.846831           9943   392            404            7457           1690           2.4394002e-12
       171   43.436509          10116   392            404            7591           1729           2.4766495e-12
       172   44.046737          10314   392            403            7753           1766           2.5146271e-12
       173   44.638595          10472   392            403            7868           1809           2.5537914e-12
       174   45.275099          10663   392            402            8013           1856           2.5940924e-12
       175   45.88841           10873   392            402            8182           1897           2.6362701e-12
       176   46.535598          11067   392            402            8333           1940           2.6794167e-12
       177   47.139402          11275   392            402            8504           1977           2.7243678e-12
       178   47.760834          11454   392            402            8631           2029           2.7706578e-12
       179   48.429645          11671   392            402            8816           2061           2.8182432e-12
       180   49.193496          11885   392            402            8983           2108           2.8676803e-12
       181   49.955074          12115   392            402            9174           2147           2.9186854e-12
       182   50.649491          12363   392            402            9361           2208           2.9707834e-12
       183   51.365549          12608   392            402            9546           2268           3.0255153e-12
       184   52.143244          12847   391            402            9730           2324           3.0823271e-12
       185   52.844002          13092   391            402            9922           2377           3.1417529e-12
       186   53.620668          13349   390            402            10129          2428           3.2039888e-12
       187   54.387819          13641   390            402            10367          2482           3.2691277e-12
       188   55.198076          13927   390            402            10610          2525           3.3373413e-12
       189   56.114057          14198   390            402            10826          2580           3.4077002e-12
       190   57.056621          14507   390            402            11091          2624           3.4804662e-12
       191   57.973835          14794   390            402            11328          2674           3.5565361e-12
       192   58.931426          15128   390            402            11610          2726           3.6362086e-12
       193   59.937576          15474   390            401            11916          2767           3.7217728e-12
       194   61.089294          15828   390            401            12210          2827           3.8153094e-12
       195   62.331525          16221   390            401            12546          2884           3.9163345e-12
       196   63.594957          16645   389            401            12893          2962           4.0284351e-12
       197   65.03181           17100   388            401            13287          3024           4.1497995e-12
       198   66.678597          17532   387            400            13651          3094           4.2772561e-12
       199   68.543592          17954   387            400            13986          3181           4.4056243e-12
       200   70.598291          18449   387            398            14384          3280           4.5403987e-12
       201   72.683226          18931   387            395            14769          3380           4.6763494e-12
       202   75.119196          19414   387            395            15139          3493           4.811402e-12 
       203   77.577819          19892   387            395            15514          3596           4.9490841e-12
       204   80.122925          20416   386            394            15933          3703           5.0863389e-12
       205   82.699437          20909   386            394            16309          3820           5.2281124e-12
       206   85.271129          21475   384            394            16760          3937           5.3842743e-12
       207   87.921535          22037   384            393            17200          4060           5.5366544e-12
       208   90.600742          22580   383            391            17599          4207           5.6927344e-12
       209   93.311801          23200   382            391            18081          4346           5.8435207e-12
       210   96.133904          23734   382            391            18499          4462           6.0014424e-12
       211   98.948123          24371   380            389            18997          4605           6.1545762e-12
       212   101.77285          24960   380            389            19447          4744           6.3197186e-12
       213   104.58856          25575   380            388            19925          4882           6.480725e-12 
       214   107.42414          26195   380            388            20416          5011           6.6537588e-12
       215   110.26718          26844   380            387            20930          5147           6.8151472e-12
       216   113.11204          27473   379            385            21426          5283           6.9921042e-12
       217   115.94821          28171   377            384            21991          5419           7.1709616e-12
       218   118.80746          28851   376            380            22525          5570           7.3579184e-12
       219   121.64446          29537   373            378            23065          5721           7.5393079e-12
       220   124.60021          30261   371            378            23613          5899           7.7220938e-12
       221   127.45977          31001   370            375            24199          6057           7.9190047e-12
       222   130.32753          31731   366            370            24777          6218           8.1098911e-12
       223   133.17357          32471   362            365            25345          6399           8.2951413e-12
       224   136.01908          33289   362            360            25999          6568           8.5012453e-12
       225   138.83127          34139   360            357            26685          6737           8.7254642e-12
       226   141.70183          34813   358            349            27177          6929           8.9093822e-12
       227   144.55552          35632   355            347            27778          7152           9.0935432e-12
       228   147.42721          36441   351            340            28378          7372           9.293378e-12 
       229   150.28878          37230   343            331            28948          7608           9.4834192e-12
       230   153.26326          38074   340            325            29532          7877           9.6933577e-12
       231   156.12492          38911   328            317            30123          8143           9.9029001e-12
       232   158.99731          39666   317            307            30634          8408           1.0075091e-11
       233   161.88976          40388   304            292            31084          8708           1.0224536e-11
       234   164.79221          41127   288            275            31558          9006           1.0364351e-11
       235   167.62991          41957   280            258            32150          9269           1.0549681e-11
       236   170.5176           42659   270            242            32589          9558           1.0681002e-11
       237   173.40291          43397   258            221            33087          9831           1.0849235e-11
       238   176.33699          44005   241            202            33489          10073          1.0944202e-11
       239   179.25535          44757   218            180            33999          10360          1.1070585e-11
       240   182.36222          45328   200            161            34364          10603          1.1151831e-11
       241   185.35688          45987   183            138            34819          10847          1.1253807e-11
       242   188.31725          46677   151            117            35310          11099          1.1342549e-11
       243   191.33074          47213   132            102            35657          11322          1.1417505e-11
       244   194.33671          47805   109            82             36073          11541          1.1484054e-11
       245   197.34147          48399   91             68             36472          11768          1.1560962e-11
       246   200.35567          48909   71             52             36787          11999          1.1596748e-11
       247   203.40966          49489   57             42             37159          12231          1.1658024e-11
       248   206.47074          49994   49             31             37427          12487          1.1701233e-11
       249   209.58811          50484   39             26             37684          12735          1.1718041e-11
       250   212.80408          51016   35             21             37939          13021          1.1756134e-11
       251   215.94176          51546   26             14             38220          13286          1.1788574e-11
       252   219.06266          51987   19             11             38378          13579          1.1806752e-11
       253   222.18981          52426   11             6              38541          13868          1.1848272e-11
       254   225.36629          52931   7              5              38742          14177          1.1842827e-11
       255   228.56885          53337   5              3              38853          14476          1.184881e-11 
       256   231.76078          53799   4              2              39017          14776          1.1843302e-11
       257   234.96259          54286   2              1              39177          15106          1.1888035e-11
       258   238.20626          54600   1              1              39113          15485          1.1847785e-11
       259   241.42701          55046   0              1              39194          15851          1.1857707e-11
       260   244.89627          55513   0              1              39343          16169          1.1862963e-11
       261   248.19007          55944   0              0              39444          16500          1.1863315e-11
       262   251.48108          56296   0              0              39489          16807          1.1844599e-11
       263   254.81014          56704   0              0              39548          17156          1.1851221e-11
       264   258.20924          57041   0              0              39561          17480          1.1833377e-11
       265   261.61176          57483   0              0              39665          17818          1.1842768e-11
       266   265.0162           57956   0              0              39793          18163          1.1851811e-11
       267   268.47918          58345   0              0              39862          18483          1.1847961e-11
       268   271.99192          58602   0              0              39799          18803          1.182761e-11 
       269   275.45439          58950   0              0              39812          19138          1.181489e-11 
       270   279.10292          59378   0              0              39930          19448          1.1823145e-11
       271   282.64911          59790   0              0              40048          19742          1.1828087e-11
       272   286.18384          60142   0              0              40095          20047          1.1822227e-11
       273   289.82229          60491   0              0              40130          20361          1.1797431e-11
       274   293.4613           60788   0              0              40110          20678          1.179796e-11 
       275   297.11621          61240   0              0              40249          20991          1.1780692e-11
       276   300.79108          61567   0              0              40268          21299          1.1787885e-11
       277   304.49247          61947   0              0              40335          21612          1.1778267e-11
       278   308.24541          62328   0              0              40405          21923          1.1784858e-11
       279   311.99404          62597   0              0              40374          22223          1.1780211e-11
       280   315.89412          62947   0              0              40392          22555          1.1765462e-11
       281   319.69311          63356   0              0              40474          22882          1.1757817e-11
       282   323.54445          63656   0              0              40451          23205          1.1758186e-11
       283   327.40747          63992   0              0              40453          23539          1.174405e-11 
       284   331.31074          64410   0              0              40516          23894          1.1764269e-11
       285   335.22587          64695   0              0              40480          24215          1.1742495e-11
       286   339.18732          64988   0              0              40369          24619          1.1728137e-11
       287   343.1577           65369   0              0              40366          25003          1.1742679e-11
       288   347.17712          65715   0              0              40325          25390          1.1741455e-11
       289   351.2              66043   0              0              40268          25775          1.1737758e-11
       290   355.48834          66377   0              0              40215          26162          1.1720177e-11
       291   359.57745          66700   0              0              40141          26559          1.1731465e-11
       292   363.68388          67005   0              0              39972          27033          1.1738372e-11
       293   367.77785          67399   0              0              39947          27452          1.1759769e-11
       294   371.89925          67661   0              0              39742          27919          1.1735784e-11
       295   376.02337          68029   0              0              39665          28364          1.1744346e-11
       296   380.24169          68360   0              0              39509          28851          1.1738936e-11
       297   384.47474          68623   0              0              39294          29329          1.1721442e-11
       298   388.72443          68945   0              0              39147          29798          1.1748301e-11
       299   392.83436          69305   0              0              39049          30256          1.1760131e-11
       300   397.26666          69660   0              0              38900          30760          1.1772054e-11
       301   401.45218          70044   0              0              38805          31239          1.1795926e-11
       302   405.74075          70320   0              0              38642          31678          1.17835e-11  
       303   410.15281          70590   0              0              38423          32167          1.1782096e-11
       304   414.42049          70997   0              0              38366          32631          1.1821735e-11
       305   418.75871          71306   0              0              38224          33082          1.1837654e-11
       306   423.24979          71534   0              0              37966          33568          1.1812584e-11
       307   427.75517          71880   0              0              37831          34049          1.1820645e-11
       308   432.35153          72099   0              0              37594          34505          1.1790377e-11
       309   436.80315          72462   0              0              37541          34921          1.1804343e-11
       310   441.35119          72831   0              0              37467          35364          1.183738e-11 
       311   445.87456          73091   0              0              37281          35810          1.1832934e-11
       312   450.41331          73435   0              0              37234          36201          1.1865529e-11
       313   454.98427          73738   0              0              37087          36651          1.1863761e-11
       314   459.49649          74134   0              0              37079          37055          1.1894866e-11
       315   464.11084          74433   0              0              36998          37435          1.1903685e-11
       316   468.77854          74684   0              0              36846          37838          1.1907367e-11
       317   473.49285          74986   0              0              36740          38246          1.1894431e-11
       318   478.09083          75347   0              0              36720          38627          1.1934228e-11
       319   482.81628          75608   0              0              36595          39013          1.1918894e-11
       320   487.67745          75928   0              0              36579          39349          1.1941058e-11
Loop time of 487.678 on 16 procs for 320 steps with 75928 atoms

98.1% CPU use with 16 MPI tasks x 1 OpenMP threads

MPI task timing breakdown:
Section |  min time  |  avg time  |  max time  |%varavg| %total
---------------------------------------------------------------
Pair    | 71.89      | 107.68     | 176.43     | 298.2 | 22.08
Neigh   | 12.694     | 27.655     | 77.9       | 360.3 |  5.67
Comm    | 56.445     | 72.902     | 94.524     | 140.2 | 14.95
Output  | 2.5257     | 2.5258     | 2.5258     |   0.0 |  0.52
Modify  | 129.63     | 254.32     | 317.45     | 344.3 | 52.15
Other   |            | 22.59      |            |       |  4.63

Nlocal:         4745.5 ave        9901 max        3180 min
Histogram: 9 3 0 2 0 0 0 0 0 2
Nghost:        3720.94 ave        6533 max        2532 min
Histogram: 7 2 1 2 0 0 2 0 1 1
Neighs:        34359.9 ave       47537 max       26721 min
Histogram: 2 4 2 2 2 2 0 0 0 2

Total # of neighbors = 549759
Ave neighs/atom = 7.2405305
Neighbor list builds = 4178
Dangerous builds = 373

Total wall time: 0:08:08
