LAMMPS (23 Jun 2022 - Update 4)
  using 1 OpenMP thread(s) per MPI task
package omp 0
using multi-threaded neighbor list subroutines
#-----------------------------------------------------------------------------#
#                NUFEB Simulation: Heterotrophic Biofilm Growth               #
#-----------------------------------------------------------------------------#


#-----------------------------System Settings---------------------------------#

units si                                    # using si units (m, s, kg)
atom_style      coccus                      # using nufeb coccus atom style
atom_modify     map array sort 10 0         # map array - find atoms using indices
		                            # sort every 10

boundary        pp pp ff                    # periodic boundaries in x and y
                                            # fixed boundary in z

newton          off                         # forces between local and ghost
                                            # atoms are computed in each
					     # processor without communication

processors      * * 1                       # processor grid

comm_modify     vel yes                     # communicate velocities for ghost atoms

read_data       atom_ch.in	             # read atom.in file which defines domain size
Reading data file ...
  orthogonal box = (0 0 0) to (6e-05 6e-05 6e-05)
  4 by 4 by 1 MPI processor grid
  reading atoms ...
  150 atoms
  read_data CPU = 0.014 seconds
                                            # and initial atoms


#--------------------Microbes and Functional Groups-------------------------#

group           CROSS1   type 1               # assign type 1,2 atoms to CROSS group
50 atoms in group CROSS1
group           CROSS2   type 2
50 atoms in group CROSS2
group		CHEATER  type 3
50 atoms in group CHEATER
group           dead     type 4
0 atoms in group dead

neighbor        5e-7 bin                   # setting neighbour skin distance and style

neigh_modify    check yes                  # rebuild neighbour list if any atom
                                           # had moved more than half the skin distance


#--------------------------Mesh Grid and Substrates--------------------------#

# defining grid sytle, substrate names, and grid size
grid_style      nufeb/chemostat 3 sub metab1 metab2 5e-6

# set diffusion boundary conditions and initial concentrations (liquid:kg/m3)
grid_modify     set sub      pp pp nd  1.8e-4
No /omp style for force computation currently active
grid_modify     set metab1   pp pp nd  1e-4
No /omp style for force computation currently active
grid_modify     set metab2   pp pp nd  1e-4
No /omp style for force computation currently active


#--------------------------Biological Processes-------------------------------#

# heterotrophs growth
fix growth_cross1 CROSS1 nufeb/growth/cross1 sub 3.5e-5 metab2 4e-3 metab1 growth 0.009 yield 0.6 decay 2.6e-6 metab1_exp 20

fix growth_cross2 CROSS2 nufeb/growth/cross2 sub 3.5e-5 metab1 4e-3 metab2 growth 0.009 yield 0.6 decay 2.6e-6 metab2_exp 20

fix growth_cheater CHEATER nufeb/growth/cheater sub 3.5e-5 metab1 1e-3 metab2 1e-3 growth 0.009 yield 0.6 decay 2.6e-6
# heterotrophs division, division diameter: 1.36e-6
fix div1 CROSS1 nufeb/division/coccus 1.36e-6 832
fix div2 CROSS2 nufeb/division/coccus 1.36e-6 3022
fix div3 CHEATER nufeb/division/coccus 1.36e-6 6670

fix death1 CROSS1 nufeb/death/diameter dead 5.43e-7
fix death2 CROSS2 nufeb/death/diameter dead 5.43e-7
fix death3 CHEATER nufeb/death/diameter dead 5.43e-7

#---------------------------Physical Processes--------------------------------#

pair_style  gran/hooke/history 1e-4 NULL 1e-5 NULL 0.0 0    # pairwise interaction
pair_coeff  * *                                             # between atoms

# pairwise interaction between z-wall and atoms
fix wall all wall/gran hooke/history 1e-3 NULL 1e-4 NULL 0 0 zplane 0.0 1e-04

fix vis all viscous 1e-5                                    # viscous damping force

fix grav all gravity 9.81 vector 0.0 0.0 -1.0

fix nve all nve/limit 1e-7                                  # NVE integration with
                                                            # maximum distance limit


#---------------------------Post-Physical Processes---------------------------#

fix coeff_sub all nufeb/diffusion_coeff sub ratio 0.8       # defining diffusion coeff in the biofilm
fix coeff_metab1 all nufeb/diffusion_coeff metab1 ratio 0.8    # region is 80% of the value in liquid
fix coeff_metab2 all nufeb/diffusion_coeff metab2 ratio 0.8

#---------------------------Chemical Processes---------------------------------#

fix diff_sub all nufeb/diffusion_reaction sub 1e-9        # diffusion reaction for updating
fix diff_metab1 all nufeb/diffusion_reaction metab1 4e-9     # distribusion of substrate concentration
fix diff_metab2 all nufeb/diffusion_reaction metab2 4e-9

#--------------------------Computations and Outputs----------------------------#

variable mass equal "mass(all)"                             # total mass
variable ncross1 equal "count(CROSS1)"                      # total # of CROSS1
variable ncross2 equal "count(CROSS2)"                      # total # of CROSS2
variable ncheater equal "count(CHEATER)"
variable ndead equal "count(dead)"

shell mkdir vtk_NEPS_ch                                            # dump vtk files to /vtk folder
dump du1 all vtk 10 vtk_NEPS_ch/dump*.vtu id type diameter         # require build NUFEB with vtk option
dump du2 all grid/vtk 10 vtk_NEPS_ch/dump_%_*.vti con rea den gro

#dump du3 all movie 10 movie.avi type diameter view 80 60    # dump video
#dump_modify du3 acolor 1 blue acolor 2 lightgrey framerate 10


                                                            # dump hdf5 files to /hdf5 folder
#shell mkdir hdf5                                           # require build NUFEB with hdf5 option
#dump du3 all nufeb/hdf5 10 dump.h5 id type x y z vx vy vz fx fy fz radius conc reac

thermo_style custom step cpu atoms v_ncross1 v_ncross2 v_ncheater v_ndead v_mass     # screen and log outputs
thermo 1
thermo_modify   lost ignore

#-----------------------------------Run----------------------------------------#

# issue run command, define timesteps for physical (pairdt) and chemical (diffdt) processes
run_style nufeb diffdt 1e-4 difftol 1e-6 pairdt 1e-2 pairtol 1 pairmax 1000 diffmax 5000

timestep 12000                                               # define biological timesteps (1000s)

run 320                                                    # growing biofilm for 900x1000s
Generated 0 of 6 mixed pair_coeff terms from geometric mixing rule
Last active /omp style is pair_style gran/hooke/history/omp
Neighbor list info ...
  update every 1 steps, delay 10 steps, check yes
  max neighbors/atom: 2000, page size: 100000
  master list distance cutoff = 2.49e-06
  ghost atom cutoff = 2.49e-06
  binsize = 1.245e-06, bins = 49 49 49
  1 neighbor lists, perpetual/occasional/extra = 1 0 0
  (1) pair gran/hooke/history/omp, perpetual
      attributes: half, newton off, size, history, omp
      pair build: half/size/bin/newtoff/omp
      stencil: full/bin/3d
      bin: standard
Per MPI rank memory allocation (min/avg/max) = 11.02 | 11.02 | 11.02 Mbytes
   Step          CPU          Atoms      v_ncross1      v_ncross2      v_ncheater      v_ndead         v_mass    
         0   0                    150   50             50             50             0              1.3295396e-13
         1   0.3840742            273   96             91             86             0              1.9616795e-13
         2   0.76254487           435   150            149            136            0              2.2379083e-13
         3   1.0766017            545   171            200            174            0              2.4499916e-13
         4   1.3619531            586   186            211            189            0              2.6388915e-13
         5   1.5334106            626   196            227            203            0              2.8123276e-13
         6   1.7003229            659   206            240            213            0              2.9746067e-13
         7   1.8519469            691   220            249            222            0              3.1330383e-13
         8   1.9795648            730   229            262            239            0              3.283473e-13 
         9   2.117314             769   241            271            257            0              3.4281806e-13
        10   2.2670045            797   246            280            271            0              3.5673743e-13
        11   2.3783251            829   254            290            285            0              3.7007096e-13
        12   2.5016494            861   263            300            298            0              3.8286609e-13
        13   2.611997             902   270            306            326            0              3.9520065e-13
        14   2.7130446            928   277            313            338            0              4.0706858e-13
        15   2.7917068            959   288            322            349            0              4.180185e-13 
        16   2.9065591            980   292            326            362            0              4.2846778e-13
        17   2.9772851           1007   295            334            378            0              4.3861759e-13
        18   3.0598626           1035   304            340            391            0              4.4808025e-13
        19   3.1574951           1052   309            342            401            0              4.5710784e-13
        20   3.2499131           1084   317            347            420            0              4.6566442e-13
        21   3.3623017           1107   322            351            434            0              4.736978e-13 
        22   3.4240062           1131   330            356            445            0              4.8093564e-13
        23   3.4971179           1154   335            360            459            0              4.8772204e-13
        24   3.546085            1167   338            361            468            0              4.9413862e-13
        25   3.5979679           1187   344            366            477            0              5.0019016e-13
        26   3.6742257           1204   347            369            488            0              5.0602109e-13
        27   3.7503355           1224   352            372            500            0              5.1170118e-13
        28   3.802028            1245   361            372            512            0              5.1694426e-13
        29   3.8605863           1258   362            376            520            0              5.2194887e-13
        30   3.9393363           1281   364            379            538            0              5.2672525e-13
        31   4.007514            1296   366            383            547            0              5.3133707e-13
        32   4.0632789           1312   368            387            557            0              5.3573659e-13
        33   4.1199332           1339   376            389            574            0              5.4000608e-13
        34   4.1767583           1351   379            392            580            0              5.442361e-13 
        35   4.2278504           1371   382            394            595            0              5.4837017e-13
        36   4.2785438           1380   382            397            601            0              5.522867e-13 
        37   4.3286913           1393   386            399            608            0              5.5602924e-13
        38   4.3828029           1405   388            400            617            0              5.5963826e-13
        39   4.4298832           1414   389            402            623            0              5.6311462e-13
        40   4.4940716           1425   393            402            630            0              5.6645099e-13
        41   4.5378132           1435   393            405            637            0              5.6973286e-13
        42   4.5793727           1443   393            406            644            0              5.7291357e-13
        43   4.6201842           1460   395            408            657            0              5.7593613e-13
        44   4.6695821           1472   395            408            669            0              5.7873763e-13
        45   4.7103969           1479   397            409            673            0              5.8145654e-13
        46   4.7493053           1492   398            410            684            0              5.8406344e-13
        47   4.7895042           1505   403            410            692            0              5.8654612e-13
        48   4.8290894           1516   405            413            698            0              5.8893981e-13
        49   4.8702858           1524   405            413            706            0              5.9122608e-13
        50   4.9205248           1534   406            414            714            0              5.934171e-13 
        51   4.9561847           1543   407            415            721            0              5.9552157e-13
        52   4.9924296           1553   411            417            725            0              5.9753084e-13
        53   5.0273035           1565   412            418            735            0              5.9944607e-13
        54   5.065779            1575   414            419            742            0              6.0127687e-13
        55   5.0938853           1580   414            419            746            1              6.0307793e-13
        56   5.1243868           1587   414            419            753            1              6.047822e-13 
        57   5.1566528           1595   414            419            761            1              6.0638687e-13
        58   5.1812811           1600   415            419            764            2              6.0792229e-13
        59   5.2142775           1611   416            420            771            4              6.0937383e-13
        60   5.2574896           1617   417            421            771            8              6.1077443e-13
        61   5.2843145           1623   418            421            771            13             6.1210263e-13
        62   5.3111924           1627   419            421            773            14             6.1338168e-13
        63   5.3380059           1630   419            421            769            21             6.1460116e-13
        64   5.3651192           1634   419            421            770            24             6.1576357e-13
        65   5.3863234           1639   420            421            767            31             6.168749e-13 
        66   5.4072419           1643   420            421            766            36             6.179417e-13 
        67   5.4289186           1650   421            421            763            45             6.1896125e-13
        68   5.4518643           1652   421            421            760            50             6.1995361e-13
        69   5.471121            1654   421            421            753            59             6.2090809e-13
        70   5.5141308           1662   422            421            750            69             6.2182274e-13
        71   5.5374226           1665   422            421            739            83             6.2273209e-13
        72   5.556521            1675   424            422            735            94             6.236184e-13 
        73   5.5788339           1682   424            422            736            100            6.2446875e-13
        74   5.6006139           1687   424            423            732            108            6.2526898e-13
        75   5.619243            1694   424            423            730            117            6.2603408e-13
        76   5.639366            1697   425            423            725            124            6.2677379e-13
        77   5.6979847           1703   425            423            725            130            6.2749016e-13
        78   5.7246946           1708   425            423            727            133            6.2839559e-13
        79   5.7749584           1711   425            423            723            140            6.2920667e-13
        80   5.8588289           1712   425            423            718            146            6.3007032e-13
        81   5.9187634           1716   426            423            716            151            6.3101623e-13
        82   5.9979384           1722   427            423            720            152            6.3208222e-13
        83   6.0508874           1727   427            423            722            155            6.3327126e-13
        84   6.1273912           1735   427            424            723            161            6.3445867e-13
        85   6.2180002           1742   427            424            726            165            6.3578719e-13
        86   6.3063314           1749   427            424            731            167            6.3719875e-13
        87   6.4052025           1756   428            424            736            168            6.3875011e-13
        88   6.5144311           1767   428            424            743            172            6.4049591e-13
        89   6.6183764           1776   428            424            747            177            6.425679e-13 
        90   6.7340828           1783   428            424            754            177            6.4475478e-13
        91   6.8346002           1794   428            424            762            180            6.4707386e-13
        92   6.9415338           1804   428            424            766            186            6.4953789e-13
        93   7.0416659           1814   429            424            771            190            6.5215153e-13
        94   7.1456179           1829   429            424            781            195            6.5488233e-13
        95   7.2491534           1842   429            425            787            201            6.5778189e-13
        96   7.3288165           1854   429            425            799            201            6.6078184e-13
        97   7.3906282           1865   429            425            807            204            6.6374721e-13
        98   7.4729624           1881   429            425            818            209            6.6660769e-13
        99   7.5479541           1901   429            425            835            212            6.694769e-13 
       100   7.6609198           1910   429            425            842            214            6.7229602e-13
       101   7.7172236           1924   429            425            854            216            6.7515334e-13
       102   7.7888877           1936   429            425            863            219            6.7790206e-13
       103   7.8630412           1946   429            425            869            223            6.8059583e-13
       104   7.9357192           1960   429            426            882            223            6.8325803e-13
       105   7.9997972           1968   429            426            887            226            6.8586659e-13
       106   8.0631289           1977   430            426            893            228            6.8839802e-13
       107   8.1397302           1991   432            426            901            232            6.9085491e-13
       108   8.2193899           2000   432            426            907            235            6.9340675e-13
       109   8.3003791           2016   433            426            921            236            6.959242e-13 
       110   8.4437179           2023   433            426            925            239            6.9849387e-13
       111   8.6086416           2039   433            426            940            240            7.0123413e-13
       112   8.7520193           2054   433            426            954            241            7.046664e-13 
       113   8.9516546           2069   433            426            967            243            7.0816957e-13
       114   9.1426423           2082   433            426            979            244            7.1241809e-13
       115   9.3445347           2097   433            426            993            245            7.1701628e-13
       116   9.5360813           2113   433            426            1006           248            7.2207582e-13
       117   9.7139486           2136   433            426            1029           248            7.274707e-13 
       118   9.8598127           2160   433            427            1048           252            7.3306209e-13
       119   10.005013           2178   433            427            1066           252            7.3864367e-13
       120   10.155901           2200   433            427            1087           253            7.4422142e-13
       121   10.285281           2227   434            427            1110           256            7.4968113e-13
       122   10.405253           2242   435            427            1122           258            7.5509088e-13
       123   10.503062           2266   435            427            1144           260            7.6041478e-13
       124   10.602958           2292   435            427            1167           263            7.655563e-13 
       125   10.695034           2312   435            427            1186           264            7.7055323e-13
       126   10.850658           2332   435            427            1206           264            7.7535125e-13
       127   11.018619           2354   435            427            1224           268            7.8060047e-13
       128   11.247237           2383   435            427            1252           269            7.860728e-13 
       129   11.483166           2403   435            427            1267           274            7.9198686e-13
       130   11.735259           2432   436            427            1292           277            7.9854082e-13
       131   12.193838           2455   436            427            1315           277            8.0554026e-13
       132   12.467204           2496   436            427            1355           278            8.1333698e-13
       133   12.752079           2516   436            427            1374           279            8.2171165e-13
       134   12.968082           2561   436            427            1415           283            8.3057812e-13
       135   13.176251           2595   436            427            1445           287            8.3944151e-13
       136   13.378045           2626   436            427            1474           289            8.4839377e-13
       137   13.571497           2663   436            427            1504           296            8.5720014e-13
       138   13.779053           2700   436            427            1533           304            8.6584959e-13
       139   14.019313           2735   437            427            1561           310            8.7469155e-13
       140   14.271052           2770   437            427            1593           313            8.8392429e-13
       141   14.550659           2800   437            427            1620           316            8.9310311e-13
       142   14.90176            2849   437            427            1660           325            9.0281338e-13
       143   15.268255           2901   437            427            1703           334            9.1367203e-13
       144   15.623735           2944   436            427            1735           346            9.2575757e-13
       145   15.968798           2994   436            427            1779           352            9.3872095e-13
       146   16.297754           3053   436            427            1833           357            9.5247678e-13
       147   16.62854            3102   436            427            1878           361            9.66633e-13  
       148   16.905267           3163   434            427            1930           372            9.8119371e-13
       149   17.178715           3220   435            427            1984           374            9.9556069e-13
       150   17.466326           3279   435            427            2038           379            1.0098505e-12
       151   17.763279           3332   436            427            2085           384            1.0240394e-12
       152   18.029334           3398   436            427            2146           389            1.0382976e-12
       153   18.345501           3473   435            427            2218           393            1.0525245e-12
       154   18.690086           3527   434            427            2270           396            1.0672788e-12
       155   19.085942           3597   434            427            2339           397            1.082664e-12 
       156   19.472561           3674   434            427            2413           400            1.0990495e-12
       157   19.858275           3743   434            427            2478           404            1.1162568e-12
       158   20.252613           3816   434            427            2548           407            1.1344205e-12
       159   20.646255           3902   433            426            2630           413            1.1537866e-12
       160   21.050446           3971   433            426            2699           413            1.1737531e-12
       161   21.406886           4055   433            426            2779           417            1.1936959e-12
       162   21.749538           4143   433            426            2860           424            1.2134301e-12
       163   22.1446             4223   433            425            2937           428            1.2327098e-12
       164   22.413234           4311   433            424            3022           432            1.2516547e-12
       165   22.735348           4380   433            424            3090           433            1.2697845e-12
       166   23.077523           4474   433            424            3183           434            1.2876976e-12
       167   23.487073           4569   432            424            3273           440            1.3052994e-12
       168   23.901459           4651   432            424            3352           443            1.3237902e-12
       169   24.307403           4724   432            423            3422           447            1.3432982e-12
       170   24.754095           4817   433            423            3512           449            1.36352e-12  
       171   25.17624            4911   433            423            3600           455            1.3850324e-12
       172   25.60048            5003   433            423            3687           460            1.4071472e-12
       173   26.025895           5094   433            423            3772           466            1.4293965e-12
       174   26.443016           5184   433            423            3857           471            1.4517658e-12
       175   26.844234           5280   433            423            3947           477            1.4738974e-12
       176   27.251325           5373   433            423            4032           485            1.4959101e-12
       177   27.644169           5461   433            423            4109           496            1.5172944e-12
       178   28.037245           5569   433            423            4210           503            1.5381986e-12
       179   28.485264           5659   432            423            4288           516            1.5589537e-12
       180   28.973236           5743   432            423            4363           525            1.5805982e-12
       181   29.413031           5841   432            423            4455           531            1.6029349e-12
       182   29.869543           5944   432            423            4550           539            1.62586e-12  
       183   30.321893           6053   432            423            4654           544            1.6503907e-12
       184   30.789758           6164   432            423            4756           553            1.6759134e-12
       185   31.229224           6260   432            423            4835           570            1.7021724e-12
       186   31.691239           6383   432            423            4941           587            1.7288118e-12
       187   32.142121           6493   432            423            5036           602            1.7556981e-12
       188   32.633287           6609   432            423            5137           617            1.782747e-12 
       189   33.112806           6727   432            422            5234           639            1.8097649e-12
       190   33.644287           6835   432            422            5313           668            1.8365516e-12
       191   34.141174           6969   432            422            5427           688            1.8642733e-12
       192   34.635667           7081   432            422            5513           714            1.8921205e-12
       193   35.138795           7225   432            422            5627           744            1.9214414e-12
       194   35.632977           7365   432            422            5734           777            1.9518026e-12
       195   36.143013           7489   432            422            5810           825            1.983632e-12 
       196   36.647003           7629   432            422            5900           875            2.0166329e-12
       197   37.152949           7775   432            422            6010           911            2.0505526e-12
       198   37.701444           7910   432            422            6081           975            2.0851867e-12
       199   38.220466           8061   432            422            6172           1035           2.120135e-12 
       200   38.767903           8221   432            422            6273           1094           2.1554549e-12
       201   39.308396           8393   432            422            6406           1133           2.190713e-12 
       202   39.844088           8541   432            422            6501           1186           2.2264053e-12
       203   40.372039           8705   431            422            6626           1226           2.2631368e-12
       204   40.93215            8883   431            422            6757           1273           2.3019284e-12
       205   41.483631           9073   431            422            6906           1314           2.3420165e-12
       206   42.039759           9282   431            422            7064           1365           2.3851917e-12
       207   42.624274           9459   431            421            7189           1418           2.429682e-12 
       208   43.220101           9640   431            421            7317           1471           2.4758107e-12
       209   43.860053           9822   431            420            7436           1535           2.5231103e-12
       210   44.52739           10038   431            420            7584           1603           2.5714042e-12
       211   45.196307          10244   431            420            7738           1655           2.6198971e-12
       212   45.868116          10461   431            420            7902           1708           2.668893e-12 
       213   46.536808          10681   431            419            8066           1765           2.7207158e-12
       214   47.207739          10923   431            419            8254           1819           2.7757294e-12
       215   47.906369          11165   431            419            8452           1863           2.8340831e-12
       216   48.673288          11427   431            419            8663           1914           2.8959475e-12
       217   49.434848          11679   431            419            8859           1970           2.9605588e-12
       218   50.206944          11948   430            419            9073           2026           3.0276746e-12
       219   51.050463          12216   430            419            9289           2078           3.0970835e-12
       220   51.981207          12489   430            418            9513           2128           3.1677217e-12
       221   52.903103          12790   430            418            9759           2183           3.2412835e-12
       222   53.872441          13088   430            418            9997           2243           3.3219911e-12
       223   54.883171          13423   430            418            10276          2299           3.4104096e-12
       224   55.930303          13757   430            418            10557          2352           3.5073751e-12
       225   57.125368          14129   430            418            10896          2385           3.6115997e-12
       226   58.40597           14526   430            418            11236          2442           3.7270554e-12
       227   59.906387          14945   430            418            11604          2493           3.8490356e-12
       228   61.683206          15375   430            418            11981          2546           3.9777613e-12
       229   63.684443          15806   430            418            12361          2597           4.1071738e-12
       230   65.939868          16272   430            418            12776          2648           4.2356316e-12
       231   68.221331          16759   430            417            13209          2703           4.3732383e-12
       232   70.541055          17197   430            417            13575          2775           4.4996041e-12
       233   72.891381          17664   430            417            13982          2835           4.6348418e-12
       234   75.315469          18167   430            417            14434          2886           4.7795936e-12
       235   77.797812          18687   429            416            14900          2942           4.9313586e-12
       236   80.32148           19188   429            415            15351          2993           5.0805697e-12
       237   82.887657          19714   429            414            15835          3036           5.2214061e-12
       238   85.477118          20233   429            412            16297          3095           5.3733996e-12
       239   88.121044          20739   428            411            16735          3165           5.5145325e-12
       240   90.872587          21329   427            411            17256          3235           5.6688169e-12
       241   93.559528          21879   427            411            17752          3289           5.8209592e-12
       242   96.307963          22484   426            411            18281          3366           5.9922887e-12
       243   99.030807          23071   426            411            18796          3438           6.1669903e-12
       244   101.78987          23761   425            410            19406          3520           6.3507861e-12
       245   104.52784          24439   423            410            20018          3588           6.5252022e-12
       246   107.26248          25068   421            409            20554          3684           6.6934867e-12
       247   110.00251          25764   421            409            21176          3758           6.8983157e-12
       248   112.7819           26474   418            407            21780          3869           7.0753123e-12
       249   115.515            27179   417            407            22367          3988           7.2665728e-12
       250   118.34574          27908   416            407            22984          4101           7.4733471e-12
       251   121.15756          28653   415            407            23585          4246           7.6740057e-12
       252   123.92707          29496   413            406            24307          4370           7.8905274e-12
       253   126.66677          30273   406            403            24941          4523           8.1070166e-12
       254   129.41831          30981   405            399            25508          4669           8.314964e-12 
       255   132.1844           31772   401            398            26157          4816           8.5150455e-12
       256   134.95269          32532   397            395            26766          4974           8.7076766e-12
       257   137.72295          33438   389            389            27491          5169           8.9171788e-12
       258   140.48207          34204   387            384            28070          5363           9.1327676e-12
       259   143.21375          35029   381            375            28685          5588           9.3508814e-12
       260   146.06533          35825   372            366            29250          5837           9.549902e-12 
       261   148.85689          36650   364            357            29836          6093           9.7505444e-12
       262   151.69314          37493   350            346            30418          6379           9.9286215e-12
       263   154.46129          38241   340            336            30872          6693           1.0113858e-11
       264   157.25219          38987   323            324            31343          6997           1.0272975e-11
       265   160.04737          39756   317            308            31822          7309           1.045004e-11 
       266   162.88294          40483   302            292            32251          7638           1.0604677e-11
       267   165.75033          41311   287            277            32752          7995           1.0768117e-11
       268   168.62208          41992   268            256            33165          8303           1.0881524e-11
       269   171.50754          42605   250            231            33497          8627           1.1008031e-11
       270   174.57624          43308   229            207            33914          8958           1.1116537e-11
       271   177.48511          43879   210            184            34211          9274           1.1193919e-11
       272   180.38965          44545   183            166            34648          9548           1.1297346e-11
       273   183.32246          45131   162            151            35020          9798           1.1375668e-11
       274   186.29026          45750   142            129            35441          10038          1.1454859e-11
       275   189.26961          46273   122            105            35801          10245          1.1504093e-11
       276   192.26778          46829   109            88             36212          10420          1.1559713e-11
       277   195.27469          47337   97             72             36570          10598          1.1587625e-11
       278   198.29043          47873   79             57             36948          10789          1.1619633e-11
       279   201.29852          48408   63             38             37326          10981          1.1674739e-11
       280   204.49671          48825   45             30             37564          11186          1.1682704e-11
       281   207.60933          49311   32             23             37813          11443          1.1709636e-11
       282   210.71668          49918   21             16             38161          11720          1.1764886e-11
       283   213.85786          50296   13             14             38291          11978          1.1755901e-11
       284   217.01272          50835   10             8              38547          12270          1.1804596e-11
       285   220.18683          51231   9              7              38639          12576          1.1784056e-11
       286   223.34439          51603   8              4              38714          12877          1.1785594e-11
       287   226.56114          52073   8              4              38867          13194          1.1781532e-11
       288   229.78429          52489   4              4              38956          13525          1.181144e-11 
       289   233.05659          52946   4              4              39070          13868          1.1815652e-11
       290   236.51221          53389   4              3              39179          14203          1.1790895e-11
       291   239.82178          53770   4              2              39229          14535          1.180663e-11 
       292   243.16074          54117   3              2              39245          14867          1.1785791e-11
       293   246.58406          54533   3              2              39341          15187          1.1783728e-11
       294   249.99084          54917   3              1              39408          15505          1.1785039e-11
       295   253.40704          55268   3              1              39473          15791          1.1765367e-11
       296   256.87618          55643   3              1              39597          16042          1.1758495e-11
       297   260.37348          56045   3              1              39724          16317          1.1760613e-11
       298   263.898            56399   3              1              39799          16596          1.1743378e-11
       299   267.47273          56748   3              1              39913          16831          1.1728355e-11
       300   271.42783          57162   3              1              40039          17119          1.1719321e-11
       301   275.10293          57507   3              1              40093          17410          1.1721439e-11
       302   278.81112          57872   3              1              40180          17688          1.1714988e-11
       303   282.5431           58262   3              1              40297          17961          1.1702216e-11
       304   286.29834          58579   3              1              40346          18229          1.1678427e-11
       305   290.04822          58957   3              1              40422          18531          1.1678835e-11
       306   293.83992          59309   3              1              40487          18818          1.1695491e-11
       307   297.70424          59720   3              1              40614          19102          1.1692731e-11
       308   301.5707           60027   3              1              40588          19435          1.1680723e-11
       309   305.48173          60390   3              1              40647          19739          1.1661952e-11
       310   309.57637          60770   3              1              40693          20073          1.1697298e-11
       311   313.59537          61041   3              1              40587          20450          1.1658675e-11
       312   317.66122          61428   3              1              40633          20791          1.166059e-11 
       313   321.79166          61816   3              1              40648          21164          1.1654988e-11
       314   325.92272          62102   3              1              40562          21536          1.1644186e-11
       315   330.03578          62416   3              1              40503          21909          1.1653413e-11
       316   334.21657          62817   3              1              40543          22270          1.165739e-11 
       317   338.4712           63152   3              1              40467          22681          1.165113e-11 
       318   342.61455          63600   3              1              40496          23100          1.1672414e-11
       319   346.82961          63858   3              1              40350          23504          1.1656598e-11
       320   351.34651          64179   3              1              40251          23924          1.1652454e-11
Loop time of 351.347 on 16 procs for 320 steps with 64179 atoms

98.0% CPU use with 16 MPI tasks x 1 OpenMP threads

MPI task timing breakdown:
Section |  min time  |  avg time  |  max time  |%varavg| %total
---------------------------------------------------------------
Pair    | 39.093     | 65.371     | 117.06     | 290.7 | 18.61
Neigh   | 5.57       | 15.414     | 46.157     | 310.3 |  4.39
Comm    | 44.019     | 59.351     | 78.503     | 136.7 | 16.89
Output  | 1.9303     | 1.9304     | 1.9305     |   0.0 |  0.55
Modify  | 99.154     | 191.78     | 239.89     | 296.2 | 54.59
Other   |            | 17.5       |            |       |  4.98

Nlocal:        4011.19 ave        8818 max        2567 min
Histogram: 9 1 2 2 0 0 0 0 0 2
Nghost:        3158.88 ave        5641 max        2079 min
Histogram: 8 2 0 2 0 0 2 0 0 2
Neighs:        26191.2 ave       38143 max       19906 min
Histogram: 2 6 1 2 1 2 0 0 0 2

Total # of neighbors = 419060
Ave neighs/atom = 6.5295502
Neighbor list builds = 3303
Dangerous builds = 301

Total wall time: 0:06:11
