LAMMPS (23 Jun 2022 - Update 4)
  using 1 OpenMP thread(s) per MPI task
package omp 0
using multi-threaded neighbor list subroutines
#-----------------------------------------------------------------------------#
#                NUFEB Simulation: Heterotrophic Biofilm Growth               #
#-----------------------------------------------------------------------------#


#-----------------------------System Settings---------------------------------#

units si                                    # using si units (m, s, kg)
atom_style      coccus                      # using nufeb coccus atom style
atom_modify     map array sort 10 0         # map array - find atoms using indices
		                            # sort every 10

boundary        pp pp ff                    # periodic boundaries in x and y
                                            # fixed boundary in z

newton          off                         # forces between local and ghost
                                            # atoms are computed in each
					     # processor without communication

processors      * * 1                       # processor grid

comm_modify     vel yes                     # communicate velocities for ghost atoms

read_data       atom_ch.in	             # read atom.in file which defines domain size
Reading data file ...
  orthogonal box = (0 0 0) to (6e-05 6e-05 6e-05)
  4 by 4 by 1 MPI processor grid
  reading atoms ...
  150 atoms
  read_data CPU = 0.036 seconds
                                            # and initial atoms


#--------------------Microbes and Functional Groups-------------------------#

group           CROSS1   type 1               # assign type 1,2 atoms to CROSS group
50 atoms in group CROSS1
group           CROSS2   type 2
50 atoms in group CROSS2
group		CHEATER  type 3
50 atoms in group CHEATER
group           dead     type 4
0 atoms in group dead

neighbor        5e-7 bin                   # setting neighbour skin distance and style

neigh_modify    check yes                  # rebuild neighbour list if any atom
                                           # had moved more than half the skin distance


#--------------------------Mesh Grid and Substrates--------------------------#

# defining grid sytle, substrate names, and grid size
grid_style      nufeb/chemostat 3 sub metab1 metab2 5e-6

# set diffusion boundary conditions and initial concentrations (liquid:kg/m3)
grid_modify     set sub      pp pp nd  1.8e-4
No /omp style for force computation currently active
grid_modify     set metab1   pp pp nd  1e-4
No /omp style for force computation currently active
grid_modify     set metab2   pp pp nd  1e-4
No /omp style for force computation currently active


#--------------------------Biological Processes-------------------------------#

# heterotrophs growth
fix growth_cross1 CROSS1 nufeb/growth/cross1 sub 3.5e-5 metab2 4e-3 metab1 growth 0.009 yield 0.6 decay 2.6e-6 metab1_exp 20

fix growth_cross2 CROSS2 nufeb/growth/cross2 sub 3.5e-5 metab1 4e-3 metab2 growth 0.009 yield 0.6 decay 2.6e-6 metab2_exp 20

fix growth_cheater CHEATER nufeb/growth/cheater sub 3.5e-5 metab1 1e-3 metab2 1e-3 growth 0.009 yield 0.6 decay 2.6e-6
# heterotrophs division, division diameter: 1.36e-6
fix div1 CROSS1 nufeb/division/coccus 1.36e-6 359
fix div2 CROSS2 nufeb/division/coccus 1.36e-6 1130
fix div3 CHEATER nufeb/division/coccus 1.36e-6 2413

fix death1 CROSS1 nufeb/death/diameter dead 5.43e-7
fix death2 CROSS2 nufeb/death/diameter dead 5.43e-7
fix death3 CHEATER nufeb/death/diameter dead 5.43e-7

#---------------------------Physical Processes--------------------------------#

pair_style  gran/hooke/history 1e-4 NULL 1e-5 NULL 0.0 0    # pairwise interaction
pair_coeff  * *                                             # between atoms

# pairwise interaction between z-wall and atoms
fix wall all wall/gran hooke/history 1e-3 NULL 1e-4 NULL 0 0 zplane 0.0 1e-04

fix vis all viscous 1e-5                                    # viscous damping force

fix grav all gravity 9.81 vector 0.0 0.0 -1.0

fix nve all nve/limit 1e-7                                  # NVE integration with
                                                            # maximum distance limit


#---------------------------Post-Physical Processes---------------------------#

fix coeff_sub all nufeb/diffusion_coeff sub ratio 0.8       # defining diffusion coeff in the biofilm
fix coeff_metab1 all nufeb/diffusion_coeff metab1 ratio 0.8    # region is 80% of the value in liquid
fix coeff_metab2 all nufeb/diffusion_coeff metab2 ratio 0.8

#---------------------------Chemical Processes---------------------------------#

fix diff_sub all nufeb/diffusion_reaction sub 1e-9        # diffusion reaction for updating
fix diff_metab1 all nufeb/diffusion_reaction metab1 4e-9     # distribusion of substrate concentration
fix diff_metab2 all nufeb/diffusion_reaction metab2 4e-9

#--------------------------Computations and Outputs----------------------------#

variable mass equal "mass(all)"                             # total mass
variable ncross1 equal "count(CROSS1)"                      # total # of CROSS1
variable ncross2 equal "count(CROSS2)"                      # total # of CROSS2
variable ncheater equal "count(CHEATER)"
variable ndead equal "count(dead)"

shell mkdir vtk_NEPS_ch                                            # dump vtk files to /vtk folder
dump du1 all vtk 10 vtk_NEPS_ch/dump*.vtu id type diameter         # require build NUFEB with vtk option
dump du2 all grid/vtk 10 vtk_NEPS_ch/dump_%_*.vti con rea den gro

#dump du3 all movie 10 movie.avi type diameter view 80 60    # dump video
#dump_modify du3 acolor 1 blue acolor 2 lightgrey framerate 10


                                                            # dump hdf5 files to /hdf5 folder
#shell mkdir hdf5                                           # require build NUFEB with hdf5 option
#dump du3 all nufeb/hdf5 10 dump.h5 id type x y z vx vy vz fx fy fz radius conc reac

thermo_style custom step cpu atoms v_ncross1 v_ncross2 v_ncheater v_ndead v_mass     # screen and log outputs
thermo 1
thermo_modify   lost ignore

#-----------------------------------Run----------------------------------------#

# issue run command, define timesteps for physical (pairdt) and chemical (diffdt) processes
run_style nufeb diffdt 1e-4 difftol 1e-6 pairdt 1e-2 pairtol 1 pairmax 1000 diffmax 5000

timestep 12000                                               # define biological timesteps (1000s)

run 320                                                    # growing biofilm for 900x1000s
Generated 0 of 6 mixed pair_coeff terms from geometric mixing rule
Last active /omp style is pair_style gran/hooke/history/omp
Neighbor list info ...
  update every 1 steps, delay 10 steps, check yes
  max neighbors/atom: 2000, page size: 100000
  master list distance cutoff = 2.49e-06
  ghost atom cutoff = 2.49e-06
  binsize = 1.245e-06, bins = 49 49 49
  1 neighbor lists, perpetual/occasional/extra = 1 0 0
  (1) pair gran/hooke/history/omp, perpetual
      attributes: half, newton off, size, history, omp
      pair build: half/size/bin/newtoff/omp
      stencil: full/bin/3d
      bin: standard
Per MPI rank memory allocation (min/avg/max) = 11.02 | 11.02 | 11.02 Mbytes
   Step          CPU          Atoms      v_ncross1      v_ncross2      v_ncheater      v_ndead         v_mass    
         0   0                    150   50             50             50             0              1.3295396e-13
         1   0.38348591           273   96             91             86             0              1.9616795e-13
         2   0.76267918           432   148            148            136            0              2.2371624e-13
         3   1.0765514            540   174            196            170            0              2.450758e-13 
         4   1.372905             583   185            211            187            0              2.6377256e-13
         5   1.5530164            624   195            227            202            0              2.8128874e-13
         6   1.7116733            666   203            248            215            0              2.9800209e-13
         7   1.8728894            699   218            255            226            0              3.1412113e-13
         8   2.0295108            735   226            272            237            0              3.2953072e-13
         9   2.1656423            772   237            280            255            0              3.4402772e-13
        10   2.3092349            818   251            291            276            0              3.5798492e-13
        11   2.3927065            850   259            302            289            0              3.7106526e-13
        12   2.496053             880   266            310            304            0              3.8338447e-13
        13   2.5874566            903   270            317            316            0              3.949763e-13 
        14   2.6666934            927   273            325            329            0              4.0590793e-13
        15   2.746594             959   280            331            348            0              4.165475e-13 
        16   2.8237231            983   286            336            361            0              4.2658335e-13
        17   2.8981465           1000   289            338            373            0              4.3617474e-13
        18   2.9783194           1027   296            345            386            0              4.4526903e-13
        19   3.0514079           1048   299            349            400            0              4.5398466e-13
        20   3.1321038           1069   304            353            412            0              4.6229825e-13
        21   3.1937152           1084   309            355            420            0              4.7021574e-13
        22   3.2806648           1108   314            363            431            0              4.7775302e-13
        23   3.3300341           1134   319            366            449            0              4.8494685e-13
        24   3.3938662           1156   322            370            464            0              4.9174764e-13
        25   3.4598337           1171   324            372            475            0              4.9823662e-13
        26   3.5255511           1194   330            376            488            0              5.0454407e-13
        27   3.582218            1205   331            377            497            0              5.103838e-13 
        28   3.6432603           1223   333            378            512            0              5.1602733e-13
        29   3.702107            1238   333            380            525            0              5.2142743e-13
        30   3.7755686           1259   334            385            540            0              5.2660739e-13
        31   3.8319875           1279   339            391            549            0              5.3153302e-13
        32   3.9048446           1291   341            392            558            0              5.3627504e-13
        33   3.9563434           1301   344            394            563            0              5.4079719e-13
        34   4.0113027           1323   344            401            578            0              5.4522016e-13
        35   4.0671305           1342   348            402            592            0              5.4948176e-13
        36   4.1194868           1365   352            405            608            0              5.5360255e-13
        37   4.1706823           1368   352            405            611            0              5.5753485e-13
        38   4.2201179           1380   355            408            617            0              5.6131822e-13
        39   4.2673382           1391   357            409            625            0              5.6493584e-13
        40   4.342406            1404   358            410            636            0              5.6841511e-13
        41   4.408293            1418   362            411            645            0              5.7182696e-13
        42   4.4522691           1425   365            412            648            0              5.7515297e-13
        43   4.5081458           1439   365            413            661            0              5.7835822e-13
        44   4.5741777           1452   367            413            672            0              5.8147666e-13
        45   4.6394291           1460   369            413            678            0              5.8465082e-13
        46   4.6966239           1470   369            413            688            0              5.8771915e-13
        47   4.754066            1483   372            414            697            0              5.9067159e-13
        48   4.8142296           1495   373            415            707            0              5.9362226e-13
        49   4.897462            1506   374            419            713            0              5.9662215e-13
        50   4.9974031           1518   375            419            724            0              5.9965051e-13
        51   5.0943885           1530   376            419            735            0              6.0276618e-13
        52   5.180934            1540   376            420            744            0              6.0607773e-13
        53   5.2727729           1552   377            421            754            0              6.0943924e-13
        54   5.3388919           1564   377            421            766            0              6.1281919e-13
        55   5.4032914           1571   377            422            771            1              6.1614708e-13
        56   5.4959295           1588   377            422            787            2              6.1943788e-13
        57   5.598657            1600   377            423            798            2              6.2285641e-13
        58   5.6971484           1621   380            424            814            3              6.2643129e-13
        59   5.7971541           1628   380            424            818            6              6.3005651e-13
        60   5.910414            1637   381            424            821            11             6.3384255e-13
        61   6.0085895           1651   381            424            832            14             6.3769548e-13
        62   6.0985119           1666   382            424            839            21             6.416094e-13 
        63   6.2127676           1682   382            424            854            22             6.4563529e-13
        64   6.2832636           1699   382            427            858            32             6.4979143e-13
        65   6.3737443           1718   382            428            868            40             6.538194e-13 
        66   6.4566903           1733   384            428            874            47             6.5788527e-13
        67   6.5467922           1750   384            428            883            55             6.6190956e-13
        68   6.6342436           1770   385            428            891            66             6.6597154e-13
        69   6.7237143           1781   385            428            893            75             6.7006302e-13
        70   27.366967           1796   385            428            900            83             6.7419046e-13
        71   27.432189           1813   385            428            912            88             6.7818678e-13
        72   27.505364           1826   385            430            917            94             6.8208468e-13
        73   27.571844           1844   386            431            929            98             6.8592474e-13
        74   27.638393           1856   386            432            933            105            6.8966608e-13
        75   27.700337           1867   386            432            937            112            6.9332775e-13
        76   27.765442           1882   387            432            942            121            6.9688366e-13
        77   27.815632           1894   388            432            945            129            7.00367e-13  
        78   27.875016           1911   389            432            955            135            7.0371386e-13
        79   27.961474           1930   389            432            971            138            7.0701863e-13
        80   28.053333           1935   389            432            972            142            7.1041752e-13
        81   28.158121           1953   389            432            984            148            7.1365234e-13
        82   28.271842           1966   389            432            991            154            7.171407e-13 
        83   28.378925           1978   389            432            1002           155            7.2070195e-13
        84   28.525334           1994   389            432            1014           159            7.2443416e-13
        85   28.737523           2006   389            432            1025           160            7.2851253e-13
        86   28.916401           2016   389            432            1029           166            7.3281443e-13
        87   29.094321           2038   389            432            1050           167            7.375314e-13 
        88   29.274107           2050   389            432            1052           177            7.4275098e-13
        89   29.472103           2068   389            432            1069           178            7.4814621e-13
        90   29.668126           2088   389            432            1085           182            7.5395901e-13
        91   29.845642           2116   389            432            1112           183            7.5996576e-13
        92   29.999607           2141   389            432            1132           188            7.6613524e-13
        93   30.134066           2167   390            432            1153           192            7.7231615e-13
        94   30.254145           2190   390            432            1172           196            7.7839874e-13
        95   30.35674            2209   390            432            1185           202            7.8432512e-13
        96   30.459456           2234   391            432            1206           205            7.90045e-13  
        97   30.553804           2255   391            432            1224           208            7.9558197e-13
        98   30.637577           2283   391            432            1248           212            8.0090894e-13
        99   30.726326           2305   391            432            1266           216            8.0600766e-13
       100   30.888359           2330   391            432            1289           218            8.1089529e-13
       101   31.029523           2358   391            432            1313           222            8.1606214e-13
       102   31.162074           2379   391            432            1332           224            8.2119013e-13
       103   31.316304           2396   391            432            1347           226            8.2635699e-13
       104   31.500188           2420   391            432            1367           230            8.3160419e-13
       105   31.738339           2447   391            432            1390           234            8.3730285e-13
       106   31.99481            2474   391            432            1415           236            8.4352478e-13
       107   32.258159           2497   391            432            1433           241            8.5046923e-13
       108   32.509152           2524   391            432            1453           248            8.5807505e-13
       109   32.79596            2557   391            433            1477           256            8.6612073e-13
       110   33.06922            2596   391            433            1509           263            8.7491683e-13
       111   33.298553           2624   392            434            1531           267            8.8402117e-13
       112   33.522075           2671   392            433            1574           272            8.9338497e-13
       113   33.780082           2711   392            433            1603           283            9.0277941e-13
       114   33.947435           2749   392            433            1634           290            9.1189567e-13
       115   34.126255           2779   391            433            1661           294            9.2091326e-13
       116   34.345322           2824   391            433            1703           297            9.2974545e-13
       117   34.563005           2861   391            432            1736           302            9.3901628e-13
       118   34.820692           2908   391            432            1778           307            9.483427e-13 
       119   35.046564           2945   391            432            1807           315            9.5816151e-13
       120   35.43045            2985   391            431            1842           321            9.6809278e-13
       121   35.763089           3037   391            430            1891           325            9.7954026e-13
       122   36.133316           3099   390            430            1950           329            9.9181052e-13
       123   36.481321           3150   390            430            1997           333            1.0051476e-12
       124   36.789592           3207   390            430            2050           337            1.0191531e-12
       125   37.082493           3257   390            430            2098           339            1.0333538e-12
       126   37.359818           3316   390            431            2150           345            1.0475798e-12
       127   37.628723           3372   390            431            2202           349            1.0618386e-12
       128   37.864413           3434   390            431            2263           350            1.0759717e-12
       129   38.126719           3499   389            431            2324           355            1.0897636e-12
       130   38.427329           3557   388            430            2382           357            1.1036318e-12
       131   38.76518            3619   387            430            2443           359            1.1177253e-12
       132   39.159009           3683   385            429            2504           365            1.1326068e-12
       133   39.543099           3751   385            429            2572           365            1.1477179e-12
       134   39.923821           3825   385            429            2643           368            1.16424e-12  
       135   40.292282           3895   385            429            2712           369            1.1817674e-12
       136   40.662927           3970   385            429            2787           369            1.2002314e-12
       137   41.034919           4055   385            429            2870           371            1.2196591e-12
       138   41.391164           4141   385            429            2955           372            1.2394345e-12
       139   41.734639           4220   385            429            3033           373            1.2591261e-12
       140   42.051744           4321   385            429            3132           375            1.2787572e-12
       141   42.407756           4402   385            429            3212           376            1.2977903e-12
       142   42.704147           4477   384            429            3284           380            1.3172828e-12
       143   43.007833           4563   384            429            3366           384            1.3359803e-12
       144   43.352789           4668   384            429            3470           385            1.3543423e-12
       145   43.689339           4753   384            428            3549           392            1.3730289e-12
       146   44.132902           4849   384            428            3639           398            1.3916428e-12
       147   44.510619           4938   384            428            3721           405            1.411049e-12 
       148   44.895244           5028   384            427            3809           408            1.4307316e-12
       149   45.286249           5117   384            426            3888           419            1.4513205e-12
       150   45.698395           5221   384            426            3979           432            1.4722546e-12
       151   46.088032           5310   384            426            4061           439            1.4936266e-12
       152   46.474873           5410   384            425            4150           451            1.5149758e-12
       153   46.841589           5489   384            424            4221           460            1.536297e-12 
       154   47.180387           5594   383            424            4316           471            1.5573203e-12
       155   47.540223           5682   383            424            4395           480            1.5778402e-12
       156   47.946898           5768   383            424            4468           493            1.5981389e-12
       157   48.35936            5874   383            424            4565           502            1.6192977e-12
       158   48.777016           5958   383            424            4641           510            1.6409671e-12
       159   49.259269           6073   383            424            4748           518            1.6632665e-12
       160   49.696279           6184   383            424            4846           531            1.6869812e-12
       161   50.123415           6270   383            424            4920           543            1.7113713e-12
       162   50.544039           6401   383            424            5033           561            1.7370763e-12
       163   50.964515           6512   383            424            5129           576            1.7639107e-12
       164   51.383485           6635   383            424            5234           594            1.7912817e-12
       165   51.816829           6757   383            424            5337           613            1.8186142e-12
       166   52.250168           6869   383            424            5432           630            1.8460951e-12
       167   52.673949           7006   383            421            5549           653            1.8737095e-12
       168   53.119717           7134   383            420            5651           680            1.9013856e-12
       169   53.557525           7256   383            420            5750           703            1.9293208e-12
       170   54.039266           7381   383            420            5851           727            1.9572838e-12
       171   54.507322           7520   383            420            5950           767            1.9872036e-12
       172   54.950835           7666   383            420            6061           802            2.017956e-12 
       173   55.417647           7802   383            420            6157           842            2.0499901e-12
       174   55.884407           7978   383            419            6290           886            2.0841117e-12
       175   56.349078           8136   383            419            6409           925            2.1195873e-12
       176   56.797087           8288   383            419            6524           962            2.1557325e-12
       177   57.2615             8454   383            419            6636           1016           2.1923566e-12
       178   57.740954           8614   383            419            6742           1070           2.2288216e-12
       179   58.2172             8777   383            418            6854           1122           2.2658375e-12
       180   58.734487           8950   383            418            6964           1185           2.3027164e-12
       181   59.226237           9124   383            418            7090           1233           2.3405679e-12
       182   59.739722           9293   383            418            7198           1294           2.3786113e-12
       183   60.253039           9480   383            418            7338           1341           2.4192201e-12
       184   60.782325           9662   383            416            7448           1415           2.4621834e-12
       185   61.309259           9866   383            416            7596           1471           2.5073969e-12
       186   61.822122          10052   383            416            7708           1545           2.5540909e-12
       187   62.367004          10260   383            416            7854           1607           2.6025434e-12
       188   62.883193          10469   383            416            7993           1677           2.6524835e-12
       189   63.458826          10684   383            414            8155           1732           2.7029611e-12
       190   64.102283          10903   383            413            8320           1787           2.7540647e-12
       191   64.672248          11107   383            413            8463           1848           2.8054927e-12
       192   65.259794          11341   383            413            8655           1890           2.8591642e-12
       193   65.850222          11582   383            413            8847           1939           2.9138601e-12
       194   66.497019          11812   383            413            9007           2009           2.9719203e-12
       195   67.149324          12075   382            413            9216           2064           3.033799e-12 
       196   67.836394          12347   382            413            9446           2106           3.0994567e-12
       197   68.616578          12629   382            413            9676           2158           3.1686864e-12
       198   69.371854          12901   382            413            9886           2220           3.2405044e-12
       199   70.170665          13226   382            413            10167          2264           3.3140178e-12
       200   71.027259          13490   382            413            10390          2305           3.3899067e-12
       201   71.81543           13843   382            413            10688          2360           3.4710628e-12
       202   72.600206          14139   382            412            10941          2404           3.5577765e-12
       203   73.448321          14495   382            412            11237          2464           3.651412e-12 
       204   74.420105          14883   382            412            11583          2506           3.7555875e-12
       205   75.486962          15294   382            412            11956          2544           3.8689097e-12
       206   76.668527          15703   381            412            12309          2601           3.9890218e-12
       207   78.097787          16164   381            412            12701          2670           4.1184354e-12
       208   79.554041          16631   381            412            13100          2738           4.2513806e-12
       209   81.188475          17109   379            409            13508          2813           4.3884833e-12
       210   83.01167           17590   379            409            13920          2882           4.5238683e-12
       211   84.891473          18108   379            407            14375          2947           4.6574827e-12
       212   86.819061          18611   379            406            14808          3018           4.7967783e-12
       213   88.786153          19090   379            406            15227          3078           4.9386251e-12
       214   90.805826          19615   379            406            15682          3148           5.0787014e-12
       215   92.86068           20109   379            406            16114          3210           5.2242342e-12
       216   94.991927          20664   379            406            16593          3286           5.3784799e-12
       217   97.128847          21222   379            406            17084          3353           5.5271386e-12
       218   99.317523          21760   379            404            17546          3431           5.6820882e-12
       219   101.56788          22309   379            403            17993          3534           5.8230102e-12
       220   103.92824          22866   378            403            18445          3640           5.9720417e-12
       221   106.30041          23468   378            403            18950          3737           6.128737e-12 
       222   108.65699          24065   378            402            19456          3829           6.2927049e-12
       223   111.04787          24678   377            401            19981          3919           6.4741651e-12
       224   113.48524          25327   377            401            20526          4023           6.6407194e-12
       225   115.93699          25992   377            401            21083          4131           6.8041406e-12
       226   118.38483          26632   377            401            21592          4262           6.9836288e-12
       227   120.84844          27327   376            401            22159          4391           7.1795847e-12
       228   123.32428          28013   374            399            22681          4559           7.356623e-12 
       229   125.85334          28715   373            395            23215          4732           7.5507915e-12
       230   128.44984          29528   372            394            23870          4892           7.7485649e-12
       231   131.00684          30264   371            390            24431          5072           7.9532371e-12
       232   133.51817          31050   368            386            25067          5229           8.160562e-12 
       233   136.02087          31772   365            384            25652          5371           8.3644098e-12
       234   138.53791          32606   363            379            26300          5564           8.5665205e-12
       235   141.06428          33385   363            374            26878          5770           8.7662387e-12
       236   143.58033          34198   361            372            27492          5973           8.9769995e-12
       237   146.12817          35028   356            368            28106          6198           9.1789351e-12
       238   148.67387          35724   350            363            28586          6425           9.3660982e-12
       239   151.22261          36527   340            354            29186          6647           9.5494268e-12
       240   153.86909          37293   337            350            29730          6876           9.7409125e-12
       241   156.42564          38221   329            333            30432          7127           9.9475718e-12
       242   159.05656          38926   322            323            30902          7379           1.0121332e-11
       243   161.63526          39721   310            306            31462          7643           1.0272671e-11
       244   164.20493          40449   298            292            31935          7924           1.0448881e-11
       245   166.78008          41206   281            273            32414          8238           1.0601009e-11
       246   169.36874          41897   261            259            32834          8543           1.0749047e-11
       247   171.98331          42684   245            237            33364          8838           1.0878555e-11
       248   174.60994          43301   233            219            33709          9140           1.0996371e-11
       249   177.24508          44046   214            195            34187          9450           1.1110559e-11
       250   180.02385          44595   200            176            34488          9731           1.1197798e-11
       251   182.70243          45222   183            153            34864          10022          1.1295082e-11
       252   185.37995          45840   145            130            35246          10319          1.1366434e-11
       253   188.10588          46499   127            110            35681          10581          1.1439919e-11
       254   190.84308          47092   108            93             36038          10853          1.1519221e-11
       255   193.5792           47536   87             73             36269          11107          1.1571119e-11
       256   196.37253          48151   66             62             36672          11351          1.1625382e-11
       257   199.18183          48672   55             48             36967          11602          1.1654542e-11
       258   202.01777          49190   42             36             37242          11870          1.167477e-11 
       259   204.80603          49715   36             25             37544          12110          1.1716542e-11
       260   207.75271          50157   23             21             37755          12358          1.1758199e-11
       261   210.60981          50659   15             16             38017          12611          1.1784858e-11
       262   213.50973          51162   9              12             38277          12864          1.1802558e-11
       263   216.41174          51652   6              9              38494          13143          1.1813924e-11
       264   219.32199          52153   2              7              38742          13402          1.1856246e-11
       265   222.26919          52583   0              5              38915          13663          1.1861877e-11
       266   225.26067          52942   0              4              38979          13959          1.1833646e-11
       267   228.26357          53428   0              2              39177          14249          1.1834871e-11
       268   231.26927          53813   0              2              39252          14559          1.1829169e-11
       269   234.29559          54196   0              2              39312          14882          1.1842493e-11
       270   237.49016          54510   0              2              39298          15210          1.1810912e-11
       271   240.55735          54954   0              2              39434          15518          1.1812232e-11
       272   243.69115          55471   0              2              39630          15839          1.1828016e-11
       273   246.8735           55950   0              2              39776          16172          1.1845791e-11
       274   250.09942          56234   0              2              39733          16499          1.1807829e-11
       275   253.31577          56567   0              2              39750          16815          1.1789842e-11
       276   256.5758           56864   0              2              39756          17106          1.177771e-11 
       277   259.86329          57354   0              2              39945          17407          1.1803062e-11
       278   263.21082          57731   0              2              40019          17710          1.1759139e-11
       279   266.56363          58166   0              2              40155          18009          1.1777956e-11
       280   270.10021          58515   0              2              40200          18313          1.1776003e-11
       281   273.53506          58835   0              2              40217          18616          1.1762691e-11
       282   276.98729          59193   0              2              40263          18928          1.1766826e-11
       283   280.49924          59592   0              2              40370          19220          1.1749764e-11
       284   284.05725          59997   0              2              40481          19514          1.1752069e-11
       285   287.63712          60302   0              2              40471          19829          1.1739484e-11
       286   291.23239          60586   0              2              40465          20119          1.1729468e-11
       287   294.85983          60950   0              2              40503          20445          1.1726347e-11
       288   298.54573          61324   0              2              40566          20756          1.1700299e-11
       289   302.25444          61759   0              2              40692          21065          1.1711927e-11
       290   306.13869          62103   0              2              40705          21396          1.172458e-11 
       291   309.95536          62368   0              2              40634          21732          1.1719225e-11
       292   313.81349          62820   0              2              40747          22071          1.171899e-11 
       293   317.70533          63052   0              2              40643          22407          1.1677078e-11
       294   321.58726          63438   0              2              40646          22790          1.1685827e-11
       295   325.52683          63719   0              2              40583          23134          1.1673804e-11
       296   329.50214          64125   0              2              40581          23542          1.1674973e-11
       297   333.51535          64445   0              2              40514          23929          1.1695815e-11
       298   337.57133          64813   0              2              40494          24317          1.170403e-11 
       299   341.68848          65134   0              2              40380          24752          1.1686579e-11
       300   346.02639          65417   0              2              40239          25176          1.1674443e-11
       301   349.98617          65767   0              2              40170          25595          1.1697632e-11
       302   354.06104          66177   0              2              40103          26072          1.1710429e-11
       303   358.30946          66363   0              2              39791          26570          1.1667941e-11
       304   362.57238          66740   0              2              39674          27064          1.1671531e-11
       305   366.71253          67104   0              2              39576          27526          1.1700073e-11
       306   370.93389          67450   0              2              39448          28000          1.1716968e-11
       307   375.32375          67727   0              2              39211          28514          1.17018e-11  
       308   379.56074          68065   0              2              39059          29004          1.1725938e-11
       309   383.90032          68471   0              2              38951          29518          1.1739973e-11
       310   388.44508          68780   0              2              38795          29983          1.1742751e-11
       311   392.85597          69097   0              2              38670          30425          1.1744648e-11
       312   397.30238          69387   0              2              38523          30862          1.1755174e-11
       313   401.81138          69693   0              2              38347          31344          1.1748599e-11
       314   406.31393          70006   0              2              38179          31825          1.1749682e-11
       315   410.92773          70291   0              2              38023          32266          1.1754298e-11
       316   415.59885          70628   0              2              37910          32716          1.1750098e-11
       317   420.28917          70961   0              2              37763          33196          1.1777181e-11
       318   424.98997          71238   0              2              37604          33632          1.1769442e-11
       319   429.6883           71515   0              2              37452          34061          1.1780511e-11
       320   434.71858          71890   0              2              37392          34496          1.1780458e-11
Loop time of 434.719 on 16 procs for 320 steps with 71890 atoms

95.4% CPU use with 16 MPI tasks x 1 OpenMP threads

MPI task timing breakdown:
Section |  min time  |  avg time  |  max time  |%varavg| %total
---------------------------------------------------------------
Pair    | 70.816     | 99.118     | 148.01     | 278.6 | 22.80
Neigh   | 10.885     | 23.111     | 49.832     | 308.5 |  5.32
Comm    | 60.303     | 78.716     | 101.57     | 165.1 | 18.11
Output  | 22.545     | 22.545     | 22.546     |   0.0 |  5.19
Modify  | 106.54     | 194.33     | 246.88     | 366.0 | 44.70
Other   |            | 16.9       |            |       |  3.89

Nlocal:        4493.12 ave        7700 max        3092 min
Histogram: 8 4 0 0 0 0 0 0 0 4
Nghost:        3617.25 ave        6100 max        2407 min
Histogram: 4 5 3 0 0 0 0 0 1 3
Neighs:        31665.4 ave       40893 max       25458 min
Histogram: 4 0 5 2 1 0 0 0 0 4

Total # of neighbors = 506647
Ave neighs/atom = 7.047531
Neighbor list builds = 3883
Dangerous builds = 354

Total wall time: 0:08:06
