LAMMPS (23 Jun 2022 - Update 4)
  using 1 OpenMP thread(s) per MPI task
package omp 0
using multi-threaded neighbor list subroutines
#-----------------------------------------------------------------------------#
#                NUFEB Simulation: Heterotrophic Biofilm Growth               #
#-----------------------------------------------------------------------------#


#-----------------------------System Settings---------------------------------#

units si                                    # using si units (m, s, kg)
atom_style      coccus                      # using nufeb coccus atom style
atom_modify     map array sort 10 0         # map array - find atoms using indices
		                            # sort every 10

boundary        pp pp ff                    # periodic boundaries in x and y
                                            # fixed boundary in z

newton          off                         # forces between local and ghost
                                            # atoms are computed in each
					     # processor without communication

processors      * * 1                       # processor grid

comm_modify     vel yes                     # communicate velocities for ghost atoms

read_data       atom_ch.in	             # read atom.in file which defines domain size
Reading data file ...
  orthogonal box = (0 0 0) to (6e-05 6e-05 6e-05)
  4 by 4 by 1 MPI processor grid
  reading atoms ...
  150 atoms
  read_data CPU = 0.013 seconds
                                            # and initial atoms


#--------------------Microbes and Functional Groups-------------------------#

group           CROSS1   type 1               # assign type 1,2 atoms to CROSS group
50 atoms in group CROSS1
group           CROSS2   type 2
50 atoms in group CROSS2
group		CHEATER  type 3
50 atoms in group CHEATER
group           dead     type 4
0 atoms in group dead

neighbor        5e-7 bin                   # setting neighbour skin distance and style

neigh_modify    check yes                  # rebuild neighbour list if any atom
                                           # had moved more than half the skin distance


#--------------------------Mesh Grid and Substrates--------------------------#

# defining grid sytle, substrate names, and grid size
grid_style      nufeb/chemostat 3 sub metab1 metab2 5e-6

# set diffusion boundary conditions and initial concentrations (liquid:kg/m3)
grid_modify     set sub      pp pp nd  1.8e-4
No /omp style for force computation currently active
grid_modify     set metab1   pp pp nd  1e-4
No /omp style for force computation currently active
grid_modify     set metab2   pp pp nd  1e-4
No /omp style for force computation currently active


#--------------------------Biological Processes-------------------------------#

# heterotrophs growth
fix growth_cross1 CROSS1 nufeb/growth/cross1 sub 3.5e-5 metab2 4e-3 metab1 growth 0.009 yield 0.6 decay 2.6e-6 metab1_exp 20

fix growth_cross2 CROSS2 nufeb/growth/cross2 sub 3.5e-5 metab1 4e-3 metab2 growth 0.009 yield 0.6 decay 2.6e-6 metab2_exp 20

fix growth_cheater CHEATER nufeb/growth/cheater sub 3.5e-5 metab1 1e-3 metab2 1e-3 growth 0.009 yield 0.6 decay 2.6e-6
# heterotrophs division, division diameter: 1.36e-6
fix div1 CROSS1 nufeb/division/coccus 1.36e-6 1547
fix div2 CROSS2 nufeb/division/coccus 1.36e-6 5882
fix div3 CHEATER nufeb/division/coccus 1.36e-6 13105

fix death1 CROSS1 nufeb/death/diameter dead 5.43e-7
fix death2 CROSS2 nufeb/death/diameter dead 5.43e-7
fix death3 CHEATER nufeb/death/diameter dead 5.43e-7

#---------------------------Physical Processes--------------------------------#

pair_style  gran/hooke/history 1e-4 NULL 1e-5 NULL 0.0 0    # pairwise interaction
pair_coeff  * *                                             # between atoms

# pairwise interaction between z-wall and atoms
fix wall all wall/gran hooke/history 1e-3 NULL 1e-4 NULL 0 0 zplane 0.0 1e-04

fix vis all viscous 1e-5                                    # viscous damping force

fix grav all gravity 9.81 vector 0.0 0.0 -1.0

fix nve all nve/limit 1e-7                                  # NVE integration with
                                                            # maximum distance limit


#---------------------------Post-Physical Processes---------------------------#

fix coeff_sub all nufeb/diffusion_coeff sub ratio 0.8       # defining diffusion coeff in the biofilm
fix coeff_metab1 all nufeb/diffusion_coeff metab1 ratio 0.8    # region is 80% of the value in liquid
fix coeff_metab2 all nufeb/diffusion_coeff metab2 ratio 0.8

#---------------------------Chemical Processes---------------------------------#

fix diff_sub all nufeb/diffusion_reaction sub 1e-9        # diffusion reaction for updating
fix diff_metab1 all nufeb/diffusion_reaction metab1 4e-9     # distribusion of substrate concentration
fix diff_metab2 all nufeb/diffusion_reaction metab2 4e-9

#--------------------------Computations and Outputs----------------------------#

variable mass equal "mass(all)"                             # total mass
variable ncross1 equal "count(CROSS1)"                      # total # of CROSS1
variable ncross2 equal "count(CROSS2)"                      # total # of CROSS2
variable ncheater equal "count(CHEATER)"
variable ndead equal "count(dead)"

shell mkdir vtk_NEPS_ch                                            # dump vtk files to /vtk folder
dump du1 all vtk 10 vtk_NEPS_ch/dump*.vtu id type diameter         # require build NUFEB with vtk option
dump du2 all grid/vtk 10 vtk_NEPS_ch/dump_%_*.vti con rea den gro

#dump du3 all movie 10 movie.avi type diameter view 80 60    # dump video
#dump_modify du3 acolor 1 blue acolor 2 lightgrey framerate 10


                                                            # dump hdf5 files to /hdf5 folder
#shell mkdir hdf5                                           # require build NUFEB with hdf5 option
#dump du3 all nufeb/hdf5 10 dump.h5 id type x y z vx vy vz fx fy fz radius conc reac

thermo_style custom step cpu atoms v_ncross1 v_ncross2 v_ncheater v_ndead v_mass     # screen and log outputs
thermo 1
thermo_modify   lost ignore

#-----------------------------------Run----------------------------------------#

# issue run command, define timesteps for physical (pairdt) and chemical (diffdt) processes
run_style nufeb diffdt 1e-4 difftol 1e-6 pairdt 1e-2 pairtol 1 pairmax 1000 diffmax 5000

timestep 12000                                               # define biological timesteps (1000s)

run 320                                                    # growing biofilm for 900x1000s
Generated 0 of 6 mixed pair_coeff terms from geometric mixing rule
Last active /omp style is pair_style gran/hooke/history/omp
Neighbor list info ...
  update every 1 steps, delay 10 steps, check yes
  max neighbors/atom: 2000, page size: 100000
  master list distance cutoff = 2.49e-06
  ghost atom cutoff = 2.49e-06
  binsize = 1.245e-06, bins = 49 49 49
  1 neighbor lists, perpetual/occasional/extra = 1 0 0
  (1) pair gran/hooke/history/omp, perpetual
      attributes: half, newton off, size, history, omp
      pair build: half/size/bin/newtoff/omp
      stencil: full/bin/3d
      bin: standard
Per MPI rank memory allocation (min/avg/max) = 11.02 | 11.02 | 11.02 Mbytes
   Step          CPU          Atoms      v_ncross1      v_ncross2      v_ncheater      v_ndead         v_mass    
         0   0                    150   50             50             50             0              1.3295396e-13
         1   0.38189129           273   96             91             86             0              1.9616795e-13
         2   0.75700862           434   149            148            137            0              2.2460801e-13
         3   1.0748166            538   171            196            171            0              2.4597414e-13
         4   1.3669588            586   184            211            191            0              2.6525189e-13
         5   1.5688462            634   198            232            204            0              2.8305367e-13
         6   1.726917             668   207            247            214            0              3.0005923e-13
         7   1.870278             708   219            257            232            0              3.1636152e-13
         8   1.9999629            739   228            268            243            0              3.3174517e-13
         9   2.1125124            777   234            279            264            0              3.4635458e-13
        10   2.2301349            812   249            287            276            0              3.602018e-13 
        11   2.331922             843   255            295            293            0              3.7324768e-13
        12   2.4469344            863   259            300            304            0              3.8571286e-13
        13   2.5439737            899   266            309            324            0              3.9761169e-13
        14   2.6317058            932   270            320            342            0              4.0908501e-13
        15   2.7291154            967   281            328            358            0              4.2000886e-13
        16   2.8151044            993   286            337            370            0              4.3035505e-13
        17   2.8847395           1016   292            342            382            0              4.4001495e-13
        18   2.9652385           1038   298            346            394            0              4.4921438e-13
        19   3.0373887           1065   305            354            406            0              4.5794095e-13
        20   3.11971             1081   310            357            414            0              4.6630997e-13
        21   3.1825115           1107   314            362            431            0              4.7420189e-13
        22   3.2373178           1124   317            364            443            0              4.8171684e-13
        23   3.3077484           1154   324            373            457            0              4.8881768e-13
        24   3.3712045           1176   330            375            471            0              4.956699e-13 
        25   3.423489            1197   334            376            487            0              5.021928e-13 
        26   3.4712227           1212   335            379            498            0              5.0839689e-13
        27   3.5176276           1228   335            380            513            0              5.1428415e-13
        28   3.5848025           1242   336            384            522            0              5.1983043e-13
        29   3.6361607           1261   342            385            534            0              5.2506973e-13
        30   3.7057534           1273   343            386            544            0              5.3014331e-13
        31   3.7480213           1286   344            387            555            0              5.3486581e-13
        32   3.8023652           1304   350            389            565            0              5.3948452e-13
        33   3.8535675           1320   353            390            577            0              5.4379777e-13
        34   3.9052892           1335   356            393            586            0              5.4787984e-13
        35   3.9572649           1349   358            396            595            0              5.518001e-13 
        36   4.0267247           1359   359            399            601            0              5.555298e-13 
        37   4.0794815           1375   361            401            613            0              5.5936099e-13
        38   4.1324052           1385   363            403            619            0              5.6300219e-13
        39   4.1938931           1398   365            403            630            0              5.6652171e-13
        40   4.2601831           1406   366            405            635            0              5.6991277e-13
        41   4.309998            1422   367            406            649            0              5.7316693e-13
        42   4.3546359           1436   369            409            658            0              5.7628176e-13
        43   4.4089017           1448   372            409            667            0              5.7927992e-13
        44   4.4577154           1455   372            409            674            0              5.8224491e-13
        45   4.5049763           1467   373            411            683            0              5.8508665e-13
        46   4.5450085           1476   373            412            691            0              5.8760574e-13
        47   4.5869036           1486   375            414            697            0              5.9000861e-13
        48   4.6224442           1491   377            414            700            0              5.9232305e-13
        49   4.6955127           1497   378            414            705            0              5.9449518e-13
        50   4.771988            1506   378            415            713            0              5.9652565e-13
        51   4.8174701           1514   379            416            719            0              5.9853949e-13
        52   4.8741447           1525   380            416            729            0              6.005028e-13 
        53   4.9180278           1536   384            417            735            0              6.0232802e-13
        54   4.9615461           1544   385            418            741            0              6.0408056e-13
        55   5.0220157           1556   386            419            751            0              6.0574934e-13
        56   5.0843483           1567   388            421            757            1              6.0750512e-13
        57   5.123651            1575   390            421            763            1              6.0929955e-13
        58   5.1803241           1580   392            421            764            3              6.1096128e-13
        59   5.2432631           1587   393            421            767            6              6.1265643e-13
        60   5.303633            1595   393            421            771            10             6.1436729e-13
        61   5.3742158           1602   394            421            775            12             6.1601622e-13
        62   5.454579            1616   399            422            773            22             6.1773595e-13
        63   5.5262176           1624   400            423            774            27             6.1955674e-13
        64   5.6145219           1632   401            423            777            31             6.2141876e-13
        65   5.7064193           1638   401            424            777            36             6.2349307e-13
        66   5.7968721           1647   401            425            778            43             6.2563425e-13
        67   5.8808506           1657   402            425            778            52             6.278817e-13 
        68   5.9852616           1664   402            425            778            59             6.301921e-13 
        69   6.0587058           1672   402            425            778            67             6.3273709e-13
        70   6.1657854           1689   402            425            784            78             6.3527055e-13
        71   6.2465751           1700   405            425            790            80             6.3788873e-13
        72   6.3390212           1712   406            425            788            93             6.405391e-13 
        73   6.4198826           1723   407            425            794            97             6.4336632e-13
        74   6.5160021           1735   407            425            802            101            6.4623308e-13
        75   6.6044088           1744   407            425            801            111            6.4927548e-13
        76   6.7040625           1766   407            426            819            114            6.523087e-13 
        77   6.7705204           1777   407            426            824            120            6.555196e-13 
        78   6.8505291           1781   407            426            825            123            6.5865178e-13
        79   6.9397375           1797   407            426            837            127            6.6179171e-13
        80   7.054689            1804   407            426            841            130            6.6499398e-13
        81   7.141822            1823   407            426            854            136            6.683374e-13 
        82   7.2162034           1836   407            426            865            138            6.7168871e-13
        83   7.2852482           1848   407            426            873            142            6.7499724e-13
        84   7.3679044           1860   407            426            884            143            6.7819634e-13
        85   7.4669977           1871   408            426            889            148            6.8145649e-13
        86   7.5548692           1888   409            426            902            151            6.8483173e-13
        87   7.6512116           1904   410            426            911            157            6.8843714e-13
        88   7.7233798           1913   411            427            915            160            6.9202753e-13
        89   7.8095438           1924   411            427            922            164            6.9556811e-13
        90   7.9603379           1943   412            427            934            170            6.9915563e-13
        91   8.1237999           1959   413            427            939            180            7.0335369e-13
        92   8.2821356           1971   414            427            945            185            7.0793488e-13
        93   8.4613895           2000   414            427            971            188            7.1307245e-13
        94   8.6625022           2020   414            427            989            190            7.1871779e-13
        95   8.92789             2041   414            427            1007           193            7.2499105e-13
        96   9.1747977           2069   414            427            1030           198            7.3231719e-13
        97   9.4384681           2096   414            427            1056           199            7.4061057e-13
        98   9.7014687           2130   415            427            1085           203            7.4971543e-13
        99   9.9105427           2162   415            427            1112           208            7.5960908e-13
       100   10.174714           2202   415            427            1150           210            7.698725e-13 
       101   10.408419           2247   415            427            1193           212            7.8068336e-13
       102   10.627499           2292   415            427            1235           215            7.9182638e-13
       103   10.826827           2325   415            427            1266           217            8.0313637e-13
       104   11.009496           2364   415            427            1303           219            8.1451772e-13
       105   11.165492           2415   415            427            1348           225            8.2585098e-13
       106   11.306631           2463   416            427            1393           227            8.3698572e-13
       107   11.470115           2504   416            427            1433           228            8.4785457e-13
       108   11.617055           2547   416            427            1473           231            8.5867131e-13
       109   11.763017           2588   416            427            1511           234            8.6920864e-13
       110   11.987275           2633   416            427            1554           236            8.7971129e-13
       111   12.211206           2671   416            427            1590           238            8.9062269e-13
       112   12.460654           2723   416            427            1642           238            9.0159403e-13
       113   12.712071           2769   416            427            1686           240            9.1298855e-13
       114   13.003053           2814   416            427            1731           240            9.2474964e-13
       115   13.278225           2858   416            427            1774           241            9.3710598e-13
       116   13.510075           2911   416            427            1825           243            9.4973957e-13
       117   13.780574           2956   416            427            1868           245            9.6231033e-13
       118   14.058142           3007   416            427            1916           248            9.7518411e-13
       119   14.313939           3058   416            427            1965           250            9.8836125e-13
       120   14.588034           3105   416            427            2007           255            1.0015974e-12
       121   14.837642           3156   416            427            2055           258            1.0147994e-12
       122   15.08112            3212   416            427            2107           262            1.0281892e-12
       123   15.346929           3263   416            427            2154           266            1.0415876e-12
       124   15.599724           3315   416            427            2202           270            1.055216e-12 
       125   15.861622           3364   416            427            2244           277            1.0688768e-12
       126   16.159428           3420   416            427            2294           283            1.0827844e-12
       127   16.469732           3483   416            427            2352           288            1.0970063e-12
       128   16.796379           3544   416            427            2401           300            1.1117153e-12
       129   17.138678           3613   416            427            2464           306            1.1273149e-12
       130   17.504983           3669   417            427            2513           312            1.1433714e-12
       131   17.857922           3753   417            427            2589           320            1.1598976e-12
       132   18.191906           3813   417            425            2638           333            1.1769971e-12
       133   18.506513           3891   417            424            2713           337            1.1944136e-12
       134   18.829695           3974   417            424            2792           341            1.2119233e-12
       135   19.116646           4050   417            424            2862           347            1.2295865e-12
       136   19.389279           4120   417            423            2926           354            1.2470371e-12
       137   19.690321           4202   416            421            3001           364            1.2641529e-12
       138   19.956449           4277   416            418            3075           368            1.2813992e-12
       139   20.22847            4353   415            418            3145           375            1.2981917e-12
       140   20.588252           4436   414            416            3217           389            1.3147018e-12
       141   20.887933           4528   414            414            3304           396            1.3313726e-12
       142   21.18032            4590   414            414            3357           405            1.3479093e-12
       143   21.489274           4670   414            413            3433           410            1.3641854e-12
       144   21.826117           4756   414            413            3510           419            1.3806685e-12
       145   22.178013           4841   414            413            3579           435            1.3976397e-12
       146   22.532693           4925   413            413            3648           451            1.4146253e-12
       147   22.901335           5004   413            413            3720           458            1.4320364e-12
       148   23.267072           5086   413            412            3786           475            1.4498585e-12
       149   23.616816           5172   411            412            3862           487            1.4680125e-12
       150   24.003199           5248   410            412            3925           501            1.4863874e-12
       151   24.363626           5341   409            411            3996           525            1.5052549e-12
       152   24.712937           5443   407            410            4080           546            1.5241273e-12
       153   25.060375           5532   407            410            4154           561            1.5431094e-12
       154   25.395602           5624   406            410            4225           583            1.5622028e-12
       155   25.709102           5720   406            410            4303           601            1.5812415e-12
       156   26.031373           5822   406            409            4395           612            1.599912e-12 
       157   26.39786            5902   406            409            4466           621            1.6183942e-12
       158   26.709491           5991   404            407            4539           641            1.63671e-12  
       159   27.02693            6080   402            406            4611           661            1.6548616e-12
       160   27.394879           6179   402            406            4694           677            1.6727558e-12
       161   27.757383           6280   402            406            4774           698            1.6909752e-12
       162   28.082702           6370   402            405            4841           722            1.7093476e-12
       163   28.444401           6463   402            405            4916           740            1.7274121e-12
       164   28.834773           6570   402            404            5007           757            1.7457983e-12
       165   29.237127           6665   402            402            5088           773            1.7644177e-12
       166   29.637372           6758   400            399            5166           793            1.7839586e-12
       167   30.027492           6854   399            399            5247           809            1.8043669e-12
       168   30.416318           6956   399            399            5335           823            1.8255723e-12
       169   30.815096           7060   399            398            5416           847            1.8473693e-12
       170   31.259397           7169   398            398            5507           866            1.8693352e-12
       171   31.63848            7289   398            396            5607           888            1.8914444e-12
       172   32.026715           7409   398            395            5713           903            1.9134805e-12
       173   32.396433           7504   398            395            5794           917            1.9353117e-12
       174   32.75908            7641   398            394            5913           936            1.9568675e-12
       175   33.14421            7747   398            393            6000           956            1.977982e-12 
       176   33.528539           7857   398            393            6083           983            1.9989074e-12
       177   33.934739           7971   398            393            6168           1012           2.0200885e-12
       178   34.317404           8103   398            391            6263           1051           2.0415417e-12
       179   34.751779           8225   398            391            6343           1093           2.0631928e-12
       180   35.219927           8339   398            391            6418           1132           2.0853767e-12
       181   35.650624           8465   398            391            6508           1168           2.1086436e-12
       182   36.07358            8604   398            391            6606           1209           2.1329525e-12
       183   36.555411           8723   398            391            6684           1250           2.1579006e-12
       184   36.986234           8868   398            389            6776           1305           2.1838205e-12
       185   37.419704           9005   397            389            6865           1354           2.2103119e-12
       186   37.845913           9159   396            389            6967           1407           2.2374347e-12
       187   38.278129           9300   394            389            7073           1444           2.2648147e-12
       188   38.707837           9437   393            388            7173           1483           2.2919977e-12
       189   39.148323           9586   393            386            7280           1527           2.3190708e-12
       190   39.62845            9729   391            386            7369           1583           2.3471877e-12
       191   40.077007           9885   390            386            7476           1633           2.3757384e-12
       192   40.532086          10005   389            385            7545           1686           2.4049097e-12
       193   41.003819          10177   389            385            7683           1720           2.4353015e-12
       194   41.485811          10328   389            384            7785           1770           2.4663624e-12
       195   41.957807          10480   388            384            7886           1822           2.4976839e-12
       196   42.425105          10642   386            384            7991           1881           2.5300664e-12
       197   42.88634           10802   384            384            8104           1930           2.562891e-12 
       198   43.349997          10973   384            383            8225           1981           2.5954316e-12
       199   43.80699           11133   384            383            8333           2033           2.6280532e-12
       200   44.303291          11302   384            381            8453           2084           2.6606397e-12
       201   44.812789          11474   384            381            8567           2142           2.6936255e-12
       202   45.331192          11647   384            380            8678           2205           2.7267075e-12
       203   45.856729          11830   381            380            8820           2249           2.7610863e-12
       204   46.393378          11996   380            379            8940           2297           2.7971313e-12
       205   46.949574          12178   380            378            9042           2378           2.8343043e-12
       206   47.474937          12358   379            376            9174           2429           2.8735918e-12
       207   48.019501          12558   378            374            9309           2497           2.9151006e-12
       208   48.525716          12770   377            374            9461           2558           2.958714e-12 
       209   49.069083          12966   377            373            9594           2622           3.0033921e-12
       210   49.650968          13187   376            371            9742           2698           3.0498315e-12
       211   50.193536          13393   376            370            9887           2760           3.096967e-12 
       212   50.77071           13612   376            370            10040          2826           3.1450733e-12
       213   51.342755          13839   376            370            10207          2886           3.1934969e-12
       214   51.943566          14068   375            369            10384          2940           3.2433506e-12
       215   52.542075          14329   373            368            10571          3017           3.2942227e-12
       216   53.154963          14594   371            366            10787          3070           3.3477466e-12
       217   53.784694          14871   370            366            10992          3143           3.4041202e-12
       218   54.44025           15143   369            364            11193          3217           3.4641009e-12
       219   55.088502          15403   368            364            11405          3266           3.52684e-12  
       220   55.811896          15679   367            362            11616          3334           3.5922457e-12
       221   56.535987          15959   364            362            11843          3390           3.660031e-12 
       222   57.257721          16271   363            361            12087          3460           3.7298773e-12
       223   58.102429          16594   359            361            12340          3534           3.8030775e-12
       224   58.90199           16919   357            360            12588          3614           3.8807107e-12
       225   59.783687          17260   355            360            12857          3688           3.9633857e-12
       226   60.624801          17598   355            359            13122          3762           4.0527357e-12
       227   61.591726          17973   353            358            13426          3836           4.1510573e-12
       228   62.669855          18372   351            357            13732          3932           4.2589831e-12
       229   63.837865          18804   349            355            14077          4023           4.3784683e-12
       230   65.259306          19252   346            355            14424          4127           4.5051923e-12
       231   66.831469          19735   345            355            14815          4220           4.6324271e-12
       232   68.471228          20232   342            352            15209          4329           4.769157e-12 
       233   70.31769           20700   340            350            15565          4445           4.9037992e-12
       234   72.347636          21182   339            348            15957          4538           5.0315155e-12
       235   74.525496          21674   338            348            16358          4630           5.1702065e-12
       236   76.75129           22201   337            346            16779          4739           5.3099978e-12
       237   79.037847          22742   336            345            17209          4852           5.4494215e-12
       238   81.341566          23298   333            344            17636          4985           5.5890871e-12
       239   83.679953          23822   333            338            18041          5110           5.7320988e-12
       240   86.139116          24386   329            336            18471          5250           5.8767297e-12
       241   88.554424          24976   326            335            18918          5397           6.0309913e-12
       242   91.034834          25545   320            335            19343          5547           6.1787835e-12
       243   93.56164           26088   318            334            19765          5671           6.3206077e-12
       244   96.091399          26724   317            330            20269          5808           6.4895526e-12
       245   98.683024          27349   309            327            20768          5945           6.6479865e-12
       246   101.23556          27990   307            325            21266          6092           6.8189624e-12
       247   103.81502          28677   306            321            21817          6233           6.9900472e-12
       248   106.41199          29312   301            317            22307          6387           7.1517858e-12
       249   109.02089          30002   301            311            22853          6537           7.3425957e-12
       250   111.71909          30680   296            308            23388          6688           7.5140873e-12
       251   114.30651          31346   293            304            23914          6835           7.698808e-12 
       252   116.93036          32123   290            297            24523          7013           7.897727e-12 
       253   119.57246          32923   286            292            25163          7182           8.0900703e-12
       254   122.17224          33624   279            289            25681          7375           8.282823e-12 
       255   124.77698          34376   273            280            26267          7556           8.4626743e-12
       256   127.38383          35091   267            274            26816          7734           8.6604394e-12
       257   129.98627          35921   260            269            27472          7920           8.8570755e-12
       258   132.59354          36691   256            256            28058          8121           9.0404656e-12
       259   135.19836          37469   247            247            28579          8396           9.2270889e-12
       260   137.9126           38248   241            236            29108          8663           9.4256578e-12
       261   140.50727          39104   233            227            29741          8903           9.6315224e-12
       262   143.1577           39947   221            219            30335          9172           9.8423175e-12
       263   145.80279          40733   208            211            30881          9433           1.0013694e-11
       264   148.44348          41531   198            199            31412          9722           1.018499e-11 
       265   151.10913          42237   182            181            31897          9977           1.0351921e-11
       266   153.76734          43075   162            169            32490          10254          1.0539655e-11
       267   156.46051          43803   154            152            32961          10536          1.0672283e-11
       268   159.12147          44517   130            133            33414          10840          1.0810003e-11
       269   161.80662          45174   116            114            33786          11158          1.0930555e-11
       270   164.62579          45974   101            101            34297          11475          1.108383e-11 
       271   167.36543          46642   91             89             34707          11755          1.1191387e-11
       272   170.13285          47310   71             79             35123          12037          1.1291381e-11
       273   172.89376          47984   61             62             35568          12293          1.1412702e-11
       274   175.66951          48625   53             50             35984          12538          1.1493004e-11
       275   178.46308          49207   46             39             36315          12807          1.1555125e-11
       276   181.25072          49785   42             32             36638          13073          1.1606275e-11
       277   184.02896          50360   36             27             36955          13342          1.1685596e-11
       278   186.86777          50925   33             22             37254          13616          1.1738208e-11
       279   189.73121          51423   27             15             37490          13891          1.1777412e-11
       280   192.72706          51905   18             12             37700          14175          1.181044e-11 
       281   195.62389          52503   10             7              37999          14487          1.1850161e-11
       282   198.49709          52998   6              6              38189          14797          1.1877895e-11
       283   201.42245          53502   3              3              38385          15111          1.189243e-11 
       284   204.40543          53958   1              2              38520          15435          1.1925968e-11
       285   207.3636           54476   1              2              38722          15751          1.1960366e-11
       286   210.3725           54978   0              2              38880          16096          1.1971176e-11
       287   213.39427          55375   0              2              38932          16441          1.1974978e-11
       288   216.43708          55833   0              1              39076          16756          1.1977994e-11
       289   219.51088          56216   0              1              39168          17047          1.1941644e-11
       290   222.73287          56667   0              1              39297          17369          1.1959156e-11
       291   225.84933          57023   0              1              39352          17670          1.1963618e-11
       292   228.97474          57414   0              1              39444          17969          1.1951614e-11
       293   232.15515          57914   0              1              39629          18284          1.1966296e-11
       294   235.29597          58314   0              0              39724          18590          1.1962823e-11
       295   238.51414          58634   0              0              39721          18913          1.1931098e-11
       296   241.76318          59070   0              0              39859          19211          1.1922065e-11
       297   244.97275          59422   0              0              39883          19539          1.192637e-11 
       298   248.21276          59779   0              0              39922          19857          1.1914679e-11
       299   251.44832          60211   0              0              40006          20205          1.1927157e-11
       300   254.89328          60587   0              0              40057          20530          1.1907072e-11
       301   258.17273          60964   0              0              40097          20867          1.1902168e-11
       302   261.51648          61363   0              0              40197          21166          1.1898241e-11
       303   264.89946          61693   0              0              40214          21479          1.1880437e-11
       304   268.2975           62086   0              0              40272          21814          1.1899585e-11
       305   271.68784          62433   0              0              40287          22146          1.1896556e-11
       306   275.10238          62781   0              0              40331          22450          1.1862361e-11
       307   278.551            63136   0              0              40366          22770          1.186072e-11 
       308   282.04029          63507   0              0              40414          23093          1.1857272e-11
       309   285.54816          63903   0              0              40455          23448          1.1850781e-11
       310   289.21658          64231   0              0              40444          23787          1.1859362e-11
       311   292.79057          64546   0              0              40438          24108          1.1839444e-11
       312   296.38959          64925   0              0              40472          24453          1.1835392e-11
       313   300.03663          65240   0              0              40451          24789          1.1819575e-11
       314   303.72414          65641   0              0              40501          25140          1.1832861e-11
       315   307.39847          65925   0              0              40447          25478          1.1821281e-11
       316   311.08665          66325   0              0              40512          25813          1.1836643e-11
       317   314.81807          66621   0              0              40431          26190          1.1821544e-11
       318   318.5877           67078   0              0              40514          26564          1.185664e-11 
       319   322.41029          67391   0              0              40427          26964          1.182777e-11 
       320   326.39359          67652   0              0              40321          27331          1.18236e-11  
Loop time of 326.394 on 16 procs for 320 steps with 67652 atoms

98.3% CPU use with 16 MPI tasks x 1 OpenMP threads

MPI task timing breakdown:
Section |  min time  |  avg time  |  max time  |%varavg| %total
---------------------------------------------------------------
Pair    | 32.35      | 60.279     | 108.29     | 285.2 | 18.47
Neigh   | 5.0785     | 15.593     | 41.364     | 281.1 |  4.78
Comm    | 45.048     | 57.478     | 70.659     | 116.9 | 17.61
Output  | 1.7268     | 1.7269     | 1.7272     |   0.0 |  0.53
Modify  | 97.624     | 174.96     | 221.04     | 276.8 | 53.60
Other   |            | 16.36      |            |       |  5.01

Nlocal:        4228.25 ave        8266 max        2485 min
Histogram: 6 2 1 2 1 2 0 0 0 2
Nghost:        3267.25 ave        5679 max        2034 min
Histogram: 4 4 1 1 2 0 2 0 0 2
Neighs:        25420.4 ave       36151 max       19210 min
Histogram: 2 5 1 3 1 0 2 0 0 2

Total # of neighbors = 406726
Ave neighs/atom = 6.0120322
Neighbor list builds = 3282
Dangerous builds = 292

Total wall time: 0:05:44
