LAMMPS (23 Jun 2022 - Update 4)
  using 1 OpenMP thread(s) per MPI task
package omp 0
using multi-threaded neighbor list subroutines
#-----------------------------------------------------------------------------#
#                NUFEB Simulation: Heterotrophic Biofilm Growth               #
#-----------------------------------------------------------------------------#


#-----------------------------System Settings---------------------------------#

units si                                    # using si units (m, s, kg)
atom_style      coccus                      # using nufeb coccus atom style
atom_modify     map array sort 10 0         # map array - find atoms using indices
		                            # sort every 10

boundary        pp pp ff                    # periodic boundaries in x and y
                                            # fixed boundary in z

newton          off                         # forces between local and ghost
                                            # atoms are computed in each
					     # processor without communication

processors      * * 1                       # processor grid

comm_modify     vel yes                     # communicate velocities for ghost atoms

read_data       atom_ch.in	             # read atom.in file which defines domain size
Reading data file ...
  orthogonal box = (0 0 0) to (6e-05 6e-05 6e-05)
  4 by 4 by 1 MPI processor grid
  reading atoms ...
  150 atoms
  read_data CPU = 0.017 seconds
                                            # and initial atoms


#--------------------Microbes and Functional Groups-------------------------#

group           CROSS1   type 1               # assign type 1,2 atoms to CROSS group
50 atoms in group CROSS1
group           CROSS2   type 2
50 atoms in group CROSS2
group		CHEATER  type 3
50 atoms in group CHEATER
group           dead     type 4
0 atoms in group dead

neighbor        5e-7 bin                   # setting neighbour skin distance and style

neigh_modify    check yes                  # rebuild neighbour list if any atom
                                           # had moved more than half the skin distance


#--------------------------Mesh Grid and Substrates--------------------------#

# defining grid sytle, substrate names, and grid size
grid_style      nufeb/chemostat 3 sub metab1 metab2 5e-6

# set diffusion boundary conditions and initial concentrations (liquid:kg/m3)
grid_modify     set sub      pp pp nd  1.8e-4
No /omp style for force computation currently active
grid_modify     set metab1   pp pp nd  1e-4
No /omp style for force computation currently active
grid_modify     set metab2   pp pp nd  1e-4
No /omp style for force computation currently active


#--------------------------Biological Processes-------------------------------#

# heterotrophs growth
fix growth_cross1 CROSS1 nufeb/growth/cross1 sub 3.5e-5 metab2 4e-3 metab1 growth 0.009 yield 0.6 decay 2.6e-6 metab1_exp 20

fix growth_cross2 CROSS2 nufeb/growth/cross2 sub 3.5e-5 metab1 4e-3 metab2 growth 0.009 yield 0.6 decay 2.6e-6 metab2_exp 20

fix growth_cheater CHEATER nufeb/growth/cheater sub 3.5e-5 metab1 1e-3 metab2 1e-3 growth 0.009 yield 0.6 decay 2.6e-6
# heterotrophs division, division diameter: 1.36e-6
fix div1 CROSS1 nufeb/division/coccus 1.36e-6 2312
fix div2 CROSS2 nufeb/division/coccus 1.36e-6 8942
fix div3 CHEATER nufeb/division/coccus 1.36e-6 19990

fix death1 CROSS1 nufeb/death/diameter dead 5.43e-7
fix death2 CROSS2 nufeb/death/diameter dead 5.43e-7
fix death3 CHEATER nufeb/death/diameter dead 5.43e-7

#---------------------------Physical Processes--------------------------------#

pair_style  gran/hooke/history 1e-4 NULL 1e-5 NULL 0.0 0    # pairwise interaction
pair_coeff  * *                                             # between atoms

# pairwise interaction between z-wall and atoms
fix wall all wall/gran hooke/history 1e-3 NULL 1e-4 NULL 0 0 zplane 0.0 1e-04

fix vis all viscous 1e-5                                    # viscous damping force

fix grav all gravity 9.81 vector 0.0 0.0 -1.0

fix nve all nve/limit 1e-7                                  # NVE integration with
                                                            # maximum distance limit


#---------------------------Post-Physical Processes---------------------------#

fix coeff_sub all nufeb/diffusion_coeff sub ratio 0.8       # defining diffusion coeff in the biofilm
fix coeff_metab1 all nufeb/diffusion_coeff metab1 ratio 0.8    # region is 80% of the value in liquid
fix coeff_metab2 all nufeb/diffusion_coeff metab2 ratio 0.8

#---------------------------Chemical Processes---------------------------------#

fix diff_sub all nufeb/diffusion_reaction sub 1e-9        # diffusion reaction for updating
fix diff_metab1 all nufeb/diffusion_reaction metab1 4e-9     # distribusion of substrate concentration
fix diff_metab2 all nufeb/diffusion_reaction metab2 4e-9

#--------------------------Computations and Outputs----------------------------#

variable mass equal "mass(all)"                             # total mass
variable ncross1 equal "count(CROSS1)"                      # total # of CROSS1
variable ncross2 equal "count(CROSS2)"                      # total # of CROSS2
variable ncheater equal "count(CHEATER)"
variable ndead equal "count(dead)"

shell mkdir vtk_NEPS_ch                                            # dump vtk files to /vtk folder
dump du1 all vtk 10 vtk_NEPS_ch/dump*.vtu id type diameter         # require build NUFEB with vtk option
dump du2 all grid/vtk 10 vtk_NEPS_ch/dump_%_*.vti con rea den gro

#dump du3 all movie 10 movie.avi type diameter view 80 60    # dump video
#dump_modify du3 acolor 1 blue acolor 2 lightgrey framerate 10


                                                            # dump hdf5 files to /hdf5 folder
#shell mkdir hdf5                                           # require build NUFEB with hdf5 option
#dump du3 all nufeb/hdf5 10 dump.h5 id type x y z vx vy vz fx fy fz radius conc reac

thermo_style custom step cpu atoms v_ncross1 v_ncross2 v_ncheater v_ndead v_mass     # screen and log outputs
thermo 1
thermo_modify   lost ignore

#-----------------------------------Run----------------------------------------#

# issue run command, define timesteps for physical (pairdt) and chemical (diffdt) processes
run_style nufeb diffdt 1e-4 difftol 1e-6 pairdt 1e-2 pairtol 1 pairmax 1000 diffmax 5000

timestep 12000                                               # define biological timesteps (1000s)

run 320                                                    # growing biofilm for 900x1000s
Generated 0 of 6 mixed pair_coeff terms from geometric mixing rule
Last active /omp style is pair_style gran/hooke/history/omp
Neighbor list info ...
  update every 1 steps, delay 10 steps, check yes
  max neighbors/atom: 2000, page size: 100000
  master list distance cutoff = 2.49e-06
  ghost atom cutoff = 2.49e-06
  binsize = 1.245e-06, bins = 49 49 49
  1 neighbor lists, perpetual/occasional/extra = 1 0 0
  (1) pair gran/hooke/history/omp, perpetual
      attributes: half, newton off, size, history, omp
      pair build: half/size/bin/newtoff/omp
      stencil: full/bin/3d
      bin: standard
Per MPI rank memory allocation (min/avg/max) = 11.02 | 11.02 | 11.02 Mbytes
   Step          CPU          Atoms      v_ncross1      v_ncross2      v_ncheater      v_ndead         v_mass    
         0   0                    150   50             50             50             0              1.3295396e-13
         1   0.38551691           273   96             91             86             0              1.9616795e-13
         2   0.76847521           435   148            150            137            0              2.2422984e-13
         3   1.0843336            536   170            195            171            0              2.4541071e-13
         4   1.3843625            590   182            216            192            0              2.6423205e-13
         5   1.5605887            630   195            229            206            0              2.8205215e-13
         6   1.7025362            666   207            242            217            0              2.9877601e-13
         7   1.8356557            701   220            255            226            0              3.145275e-13 
         8   1.9892018            744   231            270            243            0              3.2965378e-13
         9   2.1390001            780   241            279            260            0              3.4398957e-13
        10   2.2668021            810   247            290            273            0              3.5763844e-13
        11   2.369044             843   257            297            289            0              3.7056571e-13
        12   2.4815863            881   269            306            306            0              3.8287705e-13
        13   2.5801455            914   279            313            322            0              3.9450601e-13
        14   2.6596775            935   284            322            329            0              4.0567058e-13
        15   2.7509273            963   290            328            345            0              4.162728e-13 
        16   2.8314554            981   293            331            357            0              4.2632264e-13
        17   2.8994344           1011   301            336            374            0              4.3585236e-13
        18   2.9677229           1030   303            341            386            0              4.4493976e-13
        19   3.0405301           1040   306            344            390            0              4.5357283e-13
        20   3.1337945           1064   311            347            406            0              4.6185989e-13
        21   3.2091541           1088   323            351            414            0              4.6985398e-13
        22   3.2896135           1105   324            355            426            0              4.7757319e-13
        23   3.3699062           1137   331            359            447            0              4.8499874e-13
        24   3.46561             1157   333            365            459            0              4.9181559e-13
        25   3.5179737           1177   337            368            472            0              4.9859411e-13
        26   3.5760515           1194   339            372            483            0              5.0502391e-13
        27   3.6660152           1210   342            376            492            0              5.1116577e-13
        28   3.7475731           1227   347            378            502            0              5.1703194e-13
        29   3.791019            1249   353            379            517            0              5.2268941e-13
        30   3.8887241           1270   355            381            534            0              5.2809237e-13
        31   3.9450242           1280   357            382            541            0              5.3315734e-13
        32   4.0027229           1301   361            383            557            0              5.3797672e-13
        33   4.0584782           1313   365            384            564            0              5.4263035e-13
        34   4.1304436           1328   368            386            574            0              5.4706926e-13
        35   4.1755173           1342   372            387            583            0              5.5139392e-13
        36   4.2448882           1357   374            388            595            0              5.5552582e-13
        37   4.2948054           1369   377            389            603            0              5.5956945e-13
        38   4.3549023           1382   381            391            610            0              5.6344078e-13
        39   4.4121746           1395   384            393            618            0              5.6720284e-13
        40   4.4770402           1409   384            393            632            0              5.7076986e-13
        41   4.5339432           1418   389            394            635            0              5.7415665e-13
        42   4.5990188           1438   391            396            651            0              5.7743669e-13
        43   4.6717606           1447   394            396            657            0              5.8074516e-13
        44   4.7231514           1454   394            396            664            0              5.8407925e-13
        45   4.7825748           1470   395            396            679            0              5.8719005e-13
        46   4.8515775           1479   396            396            687            0              5.9028269e-13
        47   4.9274713           1488   399            396            693            0              5.9336407e-13
        48   5.0114995           1500   399            396            705            0              5.9648703e-13
        49   5.087136            1514   400            396            718            0              5.9966093e-13
        50   5.1797231           1523   403            397            723            0              6.028421e-13 
        51   5.2785962           1532   405            397            730            0              6.0601579e-13
        52   5.3935853           1546   407            398            741            0              6.09453e-13  
        53   5.5043431           1563   408            398            757            0              6.1303393e-13
        54   5.6128903           1578   409            401            768            0              6.1678826e-13
        55   5.7044925           1596   411            402            783            0              6.2066849e-13
        56   5.8270895           1605   411            403            791            0              6.2466561e-13
        57   5.9374496           1620   411            403            805            1              6.2895239e-13
        58   6.0366577           1634   412            403            817            2              6.3323577e-13
        59   6.1291811           1654   413            403            835            3              6.3761999e-13
        60   6.2471157           1671   414            403            846            8              6.4199419e-13
        61   6.3466902           1689   416            403            859            11             6.4645958e-13
        62   6.4325372           1706   418            403            869            16             6.5098626e-13
        63   6.5280653           1722   418            403            877            24             6.554936e-13 
        64   6.6371211           1738   418            403            885            32             6.6001134e-13
        65   6.714634            1753   418            403            894            38             6.6462706e-13
        66   6.79219             1765   418            403            902            42             6.6913449e-13
        67   6.9777556           1780   418            403            912            47             6.735405e-13 
        68   7.0432302           1794   419            403            917            55             6.7782225e-13
        69   7.1084737           1804   419            403            921            61             6.8197979e-13
        70   7.1874939           1819   419            403            924            73             6.8601699e-13
        71   7.2565784           1837   419            403            934            81             6.8991524e-13
        72   7.3233951           1850   419            403            941            87             6.9380864e-13
        73   7.3842507           1872   419            404            956            93             6.975913e-13 
        74   7.4850002           1884   420            404            959            101            7.012625e-13 
        75   7.5820092           1902   420            404            972            106            7.0520012e-13
        76   7.6458703           1910   420            404            972            114            7.090832e-13 
        77   7.7921174           1932   421            405            988            118            7.1279799e-13
        78   7.9263087           1950   421            405            1002           122            7.1714691e-13
        79   8.0963862           1963   422            405            1009           127            7.2153484e-13
        80   8.2839611           1984   422            405            1029           128            7.264058e-13 
        81   8.4717337           1999   422            406            1040           131            7.3157022e-13
        82   8.6519336           2017   422            406            1054           135            7.3716119e-13
        83   8.8553376           2033   422            406            1062           143            7.4306937e-13
        84   9.0340045           2059   422            406            1084           147            7.4938279e-13
        85   9.218949            2078   423            406            1098           151            7.5590893e-13
        86   9.3816021           2103   423            406            1119           155            7.626191e-13 
        87   9.5094073           2122   423            406            1134           159            7.6931406e-13
        88   9.6317155           2150   423            406            1158           163            7.7585527e-13
        89   9.7400836           2176   423            406            1180           167            7.8221695e-13
        90   9.9086784           2205   423            406            1202           174            7.8836453e-13
        91   10.012236           2224   423            406            1219           176            7.9430583e-13
        92   10.101087           2248   423            406            1239           180            7.999718e-13 
        93   10.201769           2275   423            406            1265           181            8.0542072e-13
        94   10.307333           2305   423            406            1290           186            8.1080525e-13
        95   10.431488           2326   423            406            1309           188            8.1611581e-13
        96   10.563013           2342   423            406            1321           192            8.2130653e-13
        97   10.774339           2366   423            406            1342           195            8.2653502e-13
        98   11.055095           2386   423            406            1359           198            8.3260055e-13
        99   11.313037           2413   423            406            1380           204            8.3944289e-13
       100   11.61308            2445   424            406            1410           205            8.4701971e-13
       101   11.905296           2475   424            406            1439           206            8.5531488e-13
       102   12.152364           2513   424            406            1471           212            8.6438034e-13
       103   12.40584            2550   424            406            1503           217            8.7379267e-13
       104   12.643193           2585   423            405            1533           224            8.8343473e-13
       105   12.850882           2618   423            405            1558           232            8.9319025e-13
       106   13.045109           2659   423            405            1593           238            9.0286751e-13
       107   13.212216           2697   423            405            1623           246            9.1242004e-13
       108   13.385284           2741   423            404            1663           251            9.2185595e-13
       109   13.586978           2776   423            404            1693           256            9.3103129e-13
       110   13.859812           2805   423            403            1719           260            9.4038495e-13
       111   14.10972            2845   422            402            1754           267            9.5015449e-13
       112   14.371098           2894   421            401            1797           275            9.6018165e-13
       113   14.676558           2944   421            401            1841           281            9.7050005e-13
       114   15.014823           2989   421            401            1882           285            9.8156325e-13
       115   15.365579           3031   420            401            1921           289            9.9334438e-13
       116   15.676543           3085   418            401            1971           295            1.006042e-12 
       117   15.958017           3138   418            401            2021           298            1.0189611e-12
       118   16.234267           3192   418            401            2069           304            1.0319281e-12
       119   16.50511            3248   418            401            2123           306            1.0449941e-12
       120   16.800934           3299   418            401            2174           306            1.0580598e-12
       121   17.059331           3353   418            401            2227           307            1.0710606e-12
       122   17.343747           3410   418            401            2283           308            1.0839547e-12
       123   17.607815           3459   418            400            2331           310            1.0971774e-12
       124   17.887578           3521   418            400            2389           314            1.110201e-12 
       125   18.18711            3578   417            400            2445           316            1.1235798e-12
       126   18.568714           3643   417            400            2506           320            1.137172e-12 
       127   18.952985           3703   417            400            2564           322            1.1518606e-12
       128   19.333343           3784   417            400            2644           323            1.1678024e-12
       129   19.704399           3854   417            400            2711           326            1.184796e-12 
       130   20.082894           3940   417            400            2794           329            1.2026056e-12
       131   20.450785           3996   417            400            2848           331            1.2207557e-12
       132   20.798887           4085   417            400            2936           332            1.2393836e-12
       133   21.127458           4166   417            400            3016           333            1.2578792e-12
       134   21.471148           4242   417            400            3090           335            1.2762549e-12
       135   21.777199           4335   417            400            3182           336            1.2947728e-12
       136   22.088595           4415   417            400            3256           342            1.3127913e-12
       137   22.436253           4501   415            400            3340           346            1.3304982e-12
       138   22.80447            4587   415            400            3423           349            1.3484917e-12
       139   23.197936           4664   415            400            3499           350            1.3666205e-12
       140   23.62074            4749   415            400            3578           356            1.3852818e-12
       141   24.014335           4835   415            399            3662           359            1.4048894e-12
       142   24.397862           4923   415            398            3744           366            1.4248584e-12
       143   24.778708           5012   415            398            3824           375            1.4454464e-12
       144   25.166982           5099   415            398            3903           383            1.4663378e-12
       145   25.54431            5216   415            398            4007           396            1.4875532e-12
       146   25.927144           5319   415            398            4097           409            1.5089912e-12
       147   26.307018           5402   415            397            4162           428            1.5304162e-12
       148   26.682433           5512   415            397            4264           436            1.5517647e-12
       149   27.039031           5613   415            397            4355           446            1.5731923e-12
       150   27.439099           5710   415            397            4439           459            1.5945304e-12
       151   27.834212           5809   414            397            4528           470            1.6156601e-12
       152   28.231961           5896   414            397            4599           486            1.6368631e-12
       153   28.626428           6018   414            397            4707           500            1.6586025e-12
       154   29.023957           6126   414            397            4797           518            1.6809044e-12
       155   29.438567           6224   411            397            4873           543            1.7038874e-12
       156   29.857142           6337   411            397            4961           568            1.7281417e-12
       157   30.275438           6450   410            397            5053           590            1.7531483e-12
       158   30.688991           6560   410            397            5140           613            1.7788522e-12
       159   31.088816           6688   410            397            5244           637            1.8053845e-12
       160   31.510571           6806   409            397            5338           662            1.8321405e-12
       161   31.939454           6925   408            397            5443           677            1.8590351e-12
       162   32.366099           7050   408            397            5547           698            1.8861883e-12
       163   32.792501           7170   408            396            5631           735            1.913508e-12 
       164   33.224183           7311   408            396            5741           766            1.9411151e-12
       165   33.666576           7445   408            396            5837           804            1.9694458e-12
       166   34.11607            7582   408            396            5938           840            1.9985958e-12
       167   34.555609           7735   408            396            6061           870            2.0286309e-12
       168   35.005496           7880   408            396            6169           907            2.0588755e-12
       169   35.447098           8038   408            396            6283           951            2.0910366e-12
       170   35.9196             8203   408            396            6418           981            2.123694e-12 
       171   36.36736            8350   408            396            6527           1019           2.1576425e-12
       172   36.802516           8517   408            396            6669           1044           2.1921581e-12
       173   37.269122           8679   408            396            6791           1084           2.2268713e-12
       174   37.731438           8840   408            396            6902           1134           2.2615761e-12
       175   38.19613            9007   408            396            7016           1187           2.2967116e-12
       176   38.668754           9181   408            396            7145           1232           2.3317513e-12
       177   39.148074           9361   408            396            7267           1290           2.3671889e-12
       178   39.64701            9539   408            396            7379           1356           2.4034184e-12
       179   40.168418           9735   408            396            7508           1423           2.4410539e-12
       180   40.694754           9925   408            396            7632           1489           2.4811376e-12
       181   41.200068          10112   407            396            7760           1549           2.5230193e-12
       182   41.708201          10317   407            395            7916           1599           2.5666548e-12
       183   42.223215          10513   406            395            8047           1665           2.611719e-12 
       184   42.742058          10718   406            395            8192           1725           2.6579418e-12
       185   43.258643          10911   406            395            8348           1762           2.7048009e-12
       186   43.766459          11133   406            395            8515           1817           2.7517911e-12
       187   44.31869           11363   406            395            8705           1857           2.7992917e-12
       188   44.890869          11594   406            395            8890           1903           2.8474367e-12
       189   45.499902          11823   406            395            9067           1955           2.8970627e-12
       190   46.159436          12046   406            395            9232           2013           2.9486421e-12
       191   46.776339          12304   406            394            9439           2065           3.0038986e-12
       192   47.414081          12549   406            394            9619           2130           3.0622681e-12
       193   48.065403          12800   406            394            9809           2191           3.1237268e-12
       194   48.71326           13072   406            393            10028          2245           3.1881602e-12
       195   49.429711          13339   406            392            10239          2302           3.2541039e-12
       196   50.143503          13607   406            391            10448          2362           3.3222039e-12
       197   50.90228           13909   406            391            10701          2411           3.393427e-12 
       198   51.700645          14218   406            391            10970          2451           3.4685297e-12
       199   52.580899          14523   405            391            11231          2496           3.5505009e-12
       200   53.551669          14880   405            390            11541          2544           3.6406313e-12
       201   54.527947          15253   405            389            11871          2588           3.7399234e-12
       202   55.714987          15613   405            389            12173          2646           3.8483503e-12
       203   56.883517          16054   405            389            12545          2715           3.9661809e-12
       204   58.121134          16476   405            389            12903          2779           4.0894075e-12
       205   59.515529          16911   405            388            13277          2841           4.2148305e-12
       206   61.089948          17356   405            387            13652          2912           4.3425638e-12
       207   62.85703           17804   405            387            14039          2973           4.4688541e-12
       208   64.679118          18303   405            387            14470          3041           4.5959419e-12
       209   66.532619          18716   405            387            14810          3114           4.7209957e-12
       210   68.516355          19211   405            385            15217          3204           4.8561293e-12
       211   70.492996          19744   405            385            15669          3285           5.0042445e-12
       212   72.548032          20295   405            384            16139          3367           5.1502342e-12
       213   74.636245          20781   405            384            16527          3465           5.2947591e-12
       214   76.769143          21332   405            383            16997          3547           5.4401938e-12
       215   78.959916          21884   405            383            17441          3655           5.5899338e-12
       216   81.197794          22449   405            383            17917          3744           5.7369053e-12
       217   83.456352          22992   405            383            18324          3880           5.8955085e-12
       218   85.786149          23611   405            382            18817          4007           6.0522879e-12
       219   88.13348           24213   404            381            19298          4130           6.2163272e-12
       220   90.586011          24849   402            379            19778          4290           6.3812117e-12
       221   93.030649          25496   402            379            20277          4438           6.5635685e-12
       222   95.47325           26132   401            376            20769          4586           6.7329371e-12
       223   97.95505           26846   401            376            21327          4742           6.9185929e-12
       224   100.45987          27493   401            376            21809          4907           7.0911689e-12
       225   102.94832          28184   400            375            22313          5096           7.2814188e-12
       226   105.45072          28909   398            374            22830          5307           7.480177e-12 
       227   107.97817          29639   397            372            23402          5468           7.6868591e-12
       228   110.51997          30389   396            367            23976          5650           7.8907643e-12
       229   113.05427          31165   394            365            24570          5836           8.0980404e-12
       230   115.68198          31907   390            362            25097          6058           8.2963094e-12
       231   118.2956           32741   388            360            25747          6246           8.5051744e-12
       232   120.8705           33474   386            355            26267          6466           8.6929733e-12
       233   123.44429          34320   383            350            26912          6675           8.9214149e-12
       234   126.02309          35110   377            341            27500          6892           9.1144058e-12
       235   128.58605          35908   373            333            28094          7108           9.3095401e-12
       236   131.15679          36758   366            323            28731          7338           9.5297884e-12
       237   133.7644           37586   361            309            29340          7576           9.7356551e-12
       238   136.37283          38338   355            298            29853          7832           9.9150914e-12
       239   138.98538          39139   348            292            30430          8069           1.0089237e-11
       240   141.74804          39926   334            281            30991          8320           1.0278614e-11
       241   144.41983          40695   318            267            31540          8570           1.0446927e-11
       242   147.08249          41492   296            258            32113          8825           1.0614826e-11
       243   149.73047          42243   272            239            32629          9103           1.0758941e-11
       244   152.37515          42917   258            217            33087          9355           1.0893883e-11
       245   155.04501          43633   231            201            33588          9613           1.1026592e-11
       246   157.74976          44267   213            184            34034          9836           1.1125358e-11
       247   160.43319          44995   193            158            34563          10081          1.1237014e-11
       248   163.16056          45628   172            141            35023          10292          1.1319993e-11
       249   165.90114          46136   149            119            35317          10551          1.1379048e-11
       250   168.76346          46749   130            102            35773          10744          1.1453569e-11
       251   171.51447          47393   104            85             36233          10971          1.1547858e-11
       252   174.2834           47966   78             76             36614          11198          1.1605712e-11
       253   177.08443          48487   65             61             36933          11428          1.1652711e-11
       254   179.89708          48964   46             44             37193          11681          1.1683278e-11
       255   182.73287          49534   34             33             37526          11941          1.1714692e-11
       256   185.57596          50041   27             28             37815          12171          1.1743212e-11
       257   188.45797          50530   20             17             38025          12468          1.1782652e-11
       258   191.34403          51015   5              12             38242          12756          1.1813086e-11
       259   194.27868          51456   4              8              38379          13065          1.1819424e-11
       260   197.37478          51934   3              4              38553          13374          1.1804358e-11
       261   200.37583          52401   2              4              38701          13694          1.1823442e-11
       262   203.37899          52794   1              4              38773          14016          1.1837659e-11
       263   206.41973          53232   1              4              38850          14377          1.1852116e-11
       264   209.51192          53655   1              3              38934          14717          1.185068e-11 
       265   212.60247          54116   1              1              39053          15061          1.184815e-11 
       266   215.72707          54479   1              1              39088          15389          1.1829898e-11
       267   218.88504          54950   1              0              39236          15713          1.1856738e-11
       268   222.06525          55336   1              0              39312          16023          1.1844968e-11
       269   225.27432          55664   1              0              39359          16304          1.1821443e-11
       270   228.67102          56070   1              0              39463          16606          1.1815692e-11
       271   231.91962          56479   1              0              39582          16896          1.1836542e-11
       272   235.22199          56802   1              0              39613          17188          1.1804134e-11
       273   238.54721          57294   1              0              39825          17468          1.1808648e-11
       274   241.93314          57648   1              0              39883          17764          1.1789891e-11
       275   245.29229          57988   1              0              39952          18035          1.1782051e-11
       276   248.71541          58264   1              0              39921          18342          1.1755083e-11
       277   252.18456          58698   1              0              40059          18638          1.1754738e-11
       278   255.65773          59077   1              0              40199          18877          1.1771882e-11
       279   259.19066          59461   1              0              40280          19180          1.1777345e-11
       280   262.86899          59888   1              0              40417          19470          1.1759409e-11
       281   266.49008          60171   1              0              40392          19778          1.175239e-11 
       282   270.08001          60540   1              0              40443          20096          1.1733051e-11
       283   273.7494           60983   1              0              40601          20381          1.1780624e-11
       284   277.45881          61320   1              0              40626          20693          1.1761571e-11
       285   281.23141          61668   1              0              40622          21045          1.1741667e-11
       286   284.99191          62066   1              0              40689          21376          1.1769413e-11
       287   288.78223          62394   1              0              40710          21683          1.174704e-11 
       288   292.65847          62714   1              0              40716          21997          1.1731824e-11
       289   296.56402          63072   1              0              40690          22381          1.1723861e-11
       290   300.6584           63409   1              0              40659          22749          1.1729499e-11
       291   304.61307          63703   1              0              40568          23134          1.1705784e-11
       292   308.63938          64063   1              0              40574          23488          1.171366e-11 
       293   312.70708          64331   1              0              40461          23869          1.1715711e-11
       294   316.79072          64768   1              0              40524          24243          1.1729663e-11
       295   320.93304          65033   1              0              40365          24667          1.1693387e-11
       296   325.08164          65403   1              0              40314          25088          1.1710563e-11
       297   329.19092          65776   1              0              40255          25520          1.1725293e-11
       298   333.40309          66075   1              0              40128          25946          1.171414e-11 
       299   337.57399          66442   1              0              40043          26398          1.1722242e-11
       300   342.05121          66741   1              0              39852          26888          1.1721965e-11
       301   346.27309          67113   1              0              39725          27387          1.1727933e-11
       302   350.59408          67463   1              0              39653          27809          1.1732394e-11
       303   354.94367          67794   1              0              39521          28272          1.1749409e-11
       304   359.20433          68131   1              0              39425          28705          1.1764238e-11
       305   363.6337           68442   1              0              39246          29195          1.175869e-11 
       306   368.24742          68764   1              0              39045          29718          1.1744309e-11
       307   372.81791          69117   1              0              38913          30203          1.1768131e-11
       308   377.33918          69409   1              0              38735          30673          1.1751665e-11
       309   381.88284          69720   1              0              38594          31125          1.1765693e-11
       310   386.62896          69973   1              0              38370          31602          1.1768572e-11
       311   391.34434          70302   1              0              38203          32098          1.1769642e-11
       312   396.03105          70670   1              0              38082          32587          1.177575e-11 
       313   400.66251          70986   1              0              37943          33042          1.1793309e-11
       314   405.42568          71225   1              0              37753          33471          1.1775998e-11
       315   410.10732          71608   1              0              37687          33920          1.1792083e-11
       316   414.87774          71882   1              0              37514          34367          1.180821e-11 
       317   419.66562          72222   1              0              37439          34782          1.1811726e-11
       318   424.4775           72531   1              0              37291          35239          1.1821408e-11
       319   429.36959          72781   1              0              37132          35648          1.1827855e-11
       320   434.51438          73056   1              0              36974          36081          1.1802396e-11
Loop time of 434.515 on 16 procs for 320 steps with 73056 atoms

97.6% CPU use with 16 MPI tasks x 1 OpenMP threads

MPI task timing breakdown:
Section |  min time  |  avg time  |  max time  |%varavg| %total
---------------------------------------------------------------
Pair    | 74.823     | 105.36     | 155.38     | 268.7 | 24.25
Neigh   | 11.21      | 24.297     | 52.162     | 312.1 |  5.59
Comm    | 63.143     | 83.747     | 111.72     | 186.1 | 19.27
Output  | 2.0022     | 2.0025     | 2.0042     |   0.0 |  0.46
Modify  | 110.63     | 201.18     | 259.5      | 376.6 | 46.30
Other   |            | 17.93      |            |       |  4.13

Nlocal:           4566 ave        7860 max        3106 min
Histogram: 4 8 0 0 0 0 0 0 0 4
Nghost:         3697.5 ave        6188 max        2450 min
Histogram: 4 6 2 0 0 0 0 0 0 4
Neighs:        32428.4 ave       41532 max       26150 min
Histogram: 4 0 4 4 0 0 0 0 0 4

Total # of neighbors = 518854
Ave neighs/atom = 7.1021408
Neighbor list builds = 3939
Dangerous builds = 343

Total wall time: 0:07:38
