LAMMPS (23 Jun 2022 - Update 4)
  using 1 OpenMP thread(s) per MPI task
package omp 0
using multi-threaded neighbor list subroutines
#-----------------------------------------------------------------------------#
#                NUFEB Simulation: Heterotrophic Biofilm Growth               #
#-----------------------------------------------------------------------------#


#-----------------------------System Settings---------------------------------#

units si                                    # using si units (m, s, kg)
atom_style      coccus                      # using nufeb coccus atom style
atom_modify     map array sort 10 0         # map array - find atoms using indices
		                            # sort every 10

boundary        pp pp ff                    # periodic boundaries in x and y
                                            # fixed boundary in z

newton          off                         # forces between local and ghost
                                            # atoms are computed in each
					     # processor without communication

processors      * * 1                       # processor grid

comm_modify     vel yes                     # communicate velocities for ghost atoms

read_data       atom_ch.in	             # read atom.in file which defines domain size
Reading data file ...
  orthogonal box = (0 0 0) to (6e-05 6e-05 6e-05)
  4 by 4 by 1 MPI processor grid
  reading atoms ...
  150 atoms
  read_data CPU = 0.058 seconds
                                            # and initial atoms


#--------------------Microbes and Functional Groups-------------------------#

group           CROSS1   type 1               # assign type 1,2 atoms to CROSS group
50 atoms in group CROSS1
group           CROSS2   type 2
50 atoms in group CROSS2
group		CHEATER  type 3
50 atoms in group CHEATER
group           dead     type 4
0 atoms in group dead

neighbor        5e-7 bin                   # setting neighbour skin distance and style

neigh_modify    check yes                  # rebuild neighbour list if any atom
                                           # had moved more than half the skin distance


#--------------------------Mesh Grid and Substrates--------------------------#

# defining grid sytle, substrate names, and grid size
grid_style      nufeb/chemostat 3 sub metab1 metab2 5e-6

# set diffusion boundary conditions and initial concentrations (liquid:kg/m3)
grid_modify     set sub      pp pp nd  1.8e-4
No /omp style for force computation currently active
grid_modify     set metab1   pp pp nd  1e-4
No /omp style for force computation currently active
grid_modify     set metab2   pp pp nd  1e-4
No /omp style for force computation currently active


#--------------------------Biological Processes-------------------------------#

# heterotrophs growth
fix growth_cross1 CROSS1 nufeb/growth/cross1 sub 3.5e-5 metab2 4e-3 metab1 growth 0.009 yield 0.6 decay 2.6e-6 metab1_exp 20

fix growth_cross2 CROSS2 nufeb/growth/cross2 sub 3.5e-5 metab1 4e-3 metab2 growth 0.009 yield 0.6 decay 2.6e-6 metab2_exp 20

fix growth_cheater CHEATER nufeb/growth/cheater sub 3.5e-5 metab1 1e-3 metab2 1e-3 growth 0.009 yield 0.6 decay 2.6e-6
# heterotrophs division, division diameter: 1.36e-6
fix div1 CROSS1 nufeb/division/coccus 1.36e-6 119
fix div2 CROSS2 nufeb/division/coccus 1.36e-6 170
fix div3 CHEATER nufeb/division/coccus 1.36e-6 253

fix death1 CROSS1 nufeb/death/diameter dead 5.43e-7
fix death2 CROSS2 nufeb/death/diameter dead 5.43e-7
fix death3 CHEATER nufeb/death/diameter dead 5.43e-7

#---------------------------Physical Processes--------------------------------#

pair_style  gran/hooke/history 1e-4 NULL 1e-5 NULL 0.0 0    # pairwise interaction
pair_coeff  * *                                             # between atoms

# pairwise interaction between z-wall and atoms
fix wall all wall/gran hooke/history 1e-3 NULL 1e-4 NULL 0 0 zplane 0.0 1e-04

fix vis all viscous 1e-5                                    # viscous damping force

fix grav all gravity 9.81 vector 0.0 0.0 -1.0

fix nve all nve/limit 1e-7                                  # NVE integration with
                                                            # maximum distance limit


#---------------------------Post-Physical Processes---------------------------#

fix coeff_sub all nufeb/diffusion_coeff sub ratio 0.8       # defining diffusion coeff in the biofilm
fix coeff_metab1 all nufeb/diffusion_coeff metab1 ratio 0.8    # region is 80% of the value in liquid
fix coeff_metab2 all nufeb/diffusion_coeff metab2 ratio 0.8

#---------------------------Chemical Processes---------------------------------#

fix diff_sub all nufeb/diffusion_reaction sub 1e-9        # diffusion reaction for updating
fix diff_metab1 all nufeb/diffusion_reaction metab1 4e-9     # distribusion of substrate concentration
fix diff_metab2 all nufeb/diffusion_reaction metab2 4e-9

#--------------------------Computations and Outputs----------------------------#

variable mass equal "mass(all)"                             # total mass
variable ncross1 equal "count(CROSS1)"                      # total # of CROSS1
variable ncross2 equal "count(CROSS2)"                      # total # of CROSS2
variable ncheater equal "count(CHEATER)"
variable ndead equal "count(dead)"

shell mkdir vtk_NEPS_ch                                            # dump vtk files to /vtk folder
dump du1 all vtk 10 vtk_NEPS_ch/dump*.vtu id type diameter         # require build NUFEB with vtk option
dump du2 all grid/vtk 10 vtk_NEPS_ch/dump_%_*.vti con rea den gro

#dump du3 all movie 10 movie.avi type diameter view 80 60    # dump video
#dump_modify du3 acolor 1 blue acolor 2 lightgrey framerate 10


                                                            # dump hdf5 files to /hdf5 folder
#shell mkdir hdf5                                           # require build NUFEB with hdf5 option
#dump du3 all nufeb/hdf5 10 dump.h5 id type x y z vx vy vz fx fy fz radius conc reac

thermo_style custom step cpu atoms v_ncross1 v_ncross2 v_ncheater v_ndead v_mass     # screen and log outputs
thermo 1
thermo_modify   lost ignore

#-----------------------------------Run----------------------------------------#

# issue run command, define timesteps for physical (pairdt) and chemical (diffdt) processes
run_style nufeb diffdt 1e-4 difftol 1e-6 pairdt 1e-2 pairtol 1 pairmax 1000 diffmax 5000

timestep 12000                                               # define biological timesteps (1000s)

run 320                                                    # growing biofilm for 900x1000s
Generated 0 of 6 mixed pair_coeff terms from geometric mixing rule
Last active /omp style is pair_style gran/hooke/history/omp
Neighbor list info ...
  update every 1 steps, delay 10 steps, check yes
  max neighbors/atom: 2000, page size: 100000
  master list distance cutoff = 2.49e-06
  ghost atom cutoff = 2.49e-06
  binsize = 1.245e-06, bins = 49 49 49
  1 neighbor lists, perpetual/occasional/extra = 1 0 0
  (1) pair gran/hooke/history/omp, perpetual
      attributes: half, newton off, size, history, omp
      pair build: half/size/bin/newtoff/omp
      stencil: full/bin/3d
      bin: standard
Per MPI rank memory allocation (min/avg/max) = 11.02 | 11.02 | 11.02 Mbytes
   Step          CPU          Atoms      v_ncross1      v_ncross2      v_ncheater      v_ndead         v_mass    
         0   0                    150   50             50             50             0              1.3295396e-13
         1   0.38067294           273   96             91             86             0              1.9616795e-13
         2   0.75642172           435   150            149            136            0              2.2368375e-13
         3   1.0750357            537   169            194            174            0              2.4515839e-13
         4   1.3647759            590   185            211            194            0              2.6431488e-13
         5   1.574046             628   195            228            205            0              2.8227258e-13
         6   1.7388435            663   206            242            215            0              2.9909034e-13
         7   1.8872891            699   214            251            234            0              3.1492291e-13
         8   2.0248249            743   226            269            248            0              3.3023365e-13
         9   2.1420738            777   235            278            264            0              3.4459452e-13
        10   2.2826063            814   244            291            279            0              3.5823026e-13
        11   2.3898365            841   251            301            289            0              3.711675e-13 
        12   2.4909268            873   258            312            303            0              3.8338745e-13
        13   2.5898173            904   265            321            318            0              3.9522854e-13
        14   2.673176             931   271            327            333            0              4.0643768e-13
        15   2.7519513            957   273            336            348            0              4.1704952e-13
        16   2.8296266            986   284            345            357            0              4.2712804e-13
        17   2.9053624           1012   289            354            369            0              4.3667465e-13
        18   2.9756218           1035   293            360            382            0              4.4578627e-13
        19   3.0461557           1063   298            365            400            0              4.5454244e-13
        20   3.1453753           1085   301            370            414            0              4.6293337e-13
        21   3.2120605           1099   303            372            424            0              4.7104609e-13
        22   3.2771356           1120   304            377            439            0              4.787449e-13 
        23   3.3416741           1133   308            379            446            0              4.8616988e-13
        24   3.4023785           1156   311            381            464            0              4.9329285e-13
        25   3.4494652           1177   314            383            480            0              5.0011581e-13
        26   3.5074315           1202   319            387            496            0              5.0656591e-13
        27   3.5793644           1220   324            389            507            0              5.1277518e-13
        28   3.658354            1234   325            392            517            0              5.188134e-13 
        29   3.7156277           1259   328            397            534            0              5.2452061e-13
        30   12.361837           1277   333            403            541            0              5.2999186e-13
        31   12.419033           1294   338            404            552            0              5.35447e-13  
        32   12.478388           1311   338            408            565            0              5.4062075e-13
        33   12.547349           1324   339            413            572            0              5.456186e-13 
        34   12.605217           1343   340            418            585            0              5.5053913e-13
        35   12.666356           1351   343            419            589            0              5.5529419e-13
        36   12.729568           1371   344            421            606            0              5.5992786e-13
        37   12.790315           1399   349            424            626            0              5.6443502e-13
        38   12.847022           1409   349            426            634            0              5.6880529e-13
        39   12.899358           1426   351            428            647            0              5.7311505e-13
        40   12.982766           1440   352            429            659            0              5.7727943e-13
        41   13.033997           1455   353            430            672            0              5.8139098e-13
        42   13.088223           1474   355            432            687            0              5.8537565e-13
        43   13.131743           1485   358            433            694            0              5.890829e-13 
        44   13.172187           1502   362            435            705            0              5.9256689e-13
        45   13.217341           1507   362            435            710            0              5.9591583e-13
        46   13.262339           1518   363            437            718            0              5.9922185e-13
        47   13.304755           1533   364            440            729            0              6.0241935e-13
        48   13.342683           1545   364            440            741            0              6.0545258e-13
        49   13.383668           1555   365            441            749            0              6.0833999e-13
        50   13.461119           1564   365            442            757            0              6.1113386e-13
        51   13.493282           1579   365            443            771            0              6.1392234e-13
        52   13.528347           1587   365            444            777            1              6.1654525e-13
        53   13.560236           1599   367            445            786            1              6.190752e-13 
        54   13.58912            1606   367            446            792            1              6.2148032e-13
        55   13.623495           1618   367            449            799            3              6.2376749e-13
        56   13.658137           1628   367            450            808            3              6.2596472e-13
        57   13.687726           1639   368            451            816            4              6.2807214e-13
        58   13.718636           1647   369            451            823            4              6.3008957e-13
        59   13.784766           1661   370            454            830            7              6.3235557e-13
        60   13.847147           1667   370            457            831            9              6.3409541e-13
        61   13.8955             1673   371            458            829            15             6.3568976e-13
        62   13.931479           1686   371            460            831            24             6.3719149e-13
        63   13.958447           1690   371            460            830            29             6.3863126e-13
        64   14.003417           1699   372            460            831            36             6.3999541e-13
        65   14.044246           1711   375            461            836            39             6.4138328e-13
        66   14.0761             1721   375            461            841            44             6.4268719e-13
        67   14.107418           1725   375            461            837            52             6.4389605e-13
        68   14.157459           1731   376            462            830            63             6.4507934e-13
        69   14.195196           1733   376            462            829            66             6.4635659e-13
        70   14.246283           1740   377            462            826            75             6.4758537e-13
        71   14.281532           1746   377            463            825            81             6.4874807e-13
        72   14.328216           1760   380            465            829            86             6.4986576e-13
        73   14.365557           1764   380            465            828            91             6.509246e-13 
        74   14.402798           1768   380            466            826            96             6.51901e-13  
        75   14.425116           1780   381            467            829            103            6.5283543e-13
        76   14.450648           1787   382            467            829            109            6.5370582e-13
        77   14.486153           1792   382            468            828            114            6.5453454e-13
        78   14.529145           1800   383            469            829            119            6.5533847e-13
        79   14.563744           1806   384            469            832            121            6.5614935e-13
        80   14.615698           1811   385            469            828            129            6.5693296e-13
        81   14.641036           1815   385            469            828            133            6.5769911e-13
        82   14.671531           1816   385            469            821            141            6.5840928e-13
        83   14.70285            1821   385            469            819            148            6.591085e-13 
        84   14.734128           1824   386            469            818            151            6.5978236e-13
        85   14.763689           1824   386            469            816            153            6.6043092e-13
        86   14.792478           1833   386            472            811            164            6.610556e-13 
        87   14.820216           1836   386            472            811            167            6.6170662e-13
        88   14.848507           1839   386            473            812            168            6.6233167e-13
        89   14.874977           1845   387            474            811            173            6.6292078e-13
        90   14.922591           1847   387            475            805            180            6.6349554e-13
        91   14.946786           1855   388            475            807            185            6.6406323e-13
        92   14.964551           1861   388            475            811            187            6.6461416e-13
        93   14.988386           1866   390            475            810            191            6.6513226e-13
        94   15.004237           1869   390            475            811            193            6.6563226e-13
        95   15.026663           1874   391            475            809            199            6.6610442e-13
        96   15.052291           1878   391            475            809            203            6.6655853e-13
        97   15.069248           1880   391            475            809            205            6.6699284e-13
        98   15.08905            1881   391            476            808            206            6.6740081e-13
        99   15.112507           1890   392            477            812            209            6.6779216e-13
       100   15.152193           1895   393            477            813            212            6.6806363e-13
       101   15.172636           1899   393            478            814            214            6.6831248e-13
       102   15.19236            1900   393            478            815            214            6.6854327e-13
       103   15.208696           1902   393            478            816            215            6.6875216e-13
       104   15.227594           1907   395            478            819            215            6.6893801e-13
       105   15.246107           1907   395            478            818            216            6.6910411e-13
       106   15.265524           1910   395            478            816            221            6.6925263e-13
       107   15.279932           1912   395            478            813            226            6.6939147e-13
       108   15.296984           1912   395            478            813            226            6.6951784e-13
       109   15.314294           1917   395            481            812            229            6.6962721e-13
       110   15.350541           1919   396            481            812            230            6.6972581e-13
       111   15.367578           1921   396            481            810            234            6.6980365e-13
       112   15.385836           1923   396            482            807            238            6.6987433e-13
       113   15.401032           1924   396            482            806            240            6.7000224e-13
       114   15.416771           1927   396            482            807            242            6.7011642e-13
       115   15.431568           1929   396            482            809            242            6.7021821e-13
       116   15.447025           1938   397            483            813            245            6.7030548e-13
       117   15.462265           1940   397            483            814            246            6.7037839e-13
       118   15.476698           1942   397            483            816            246            6.7043588e-13
       119   15.491799           1949   398            483            821            247            6.7047909e-13
       120   15.53599            1951   398            484            822            247            6.7050491e-13
       121   15.549796           1953   398            484            824            247            6.7051847e-13
       122   15.56265            1955   398            484            826            247            6.705095e-13 
       123   15.579362           1956   398            484            826            248            6.7050068e-13
       124   15.592187           1957   398            484            824            251            6.7048028e-13
       125   15.604662           1959   398            484            825            252            6.7045698e-13
       126   15.617334           1960   398            484            826            252            6.704293e-13 
       127   15.630243           1961   398            484            827            252            6.7039274e-13
       128   15.643238           1962   398            484            824            256            6.7034953e-13
       129   15.655229           1964   398            484            826            256            6.7030684e-13
       130   15.685077           1965   398            484            824            259            6.7025761e-13
       131   15.696313           1965   398            484            822            261            6.7020669e-13
       132   15.711514           1968   398            485            821            264            6.7015395e-13
       133   15.722514           1972   398            486            824            264            6.7010274e-13
       134   15.736094           1972   398            486            823            265            6.7004664e-13
       135   15.746997           1973   398            486            821            268            6.6998287e-13
       136   15.760029           1976   399            487            820            270            6.6992109e-13
       137   15.770848           1976   399            487            816            274            6.6985967e-13
       138   15.781564           1979   399            488            816            276            6.6980299e-13
       139   15.792166           1979   399            488            813            279            6.6974681e-13
       140   15.837586           1979   399            488            810            282            6.6969309e-13
       141   15.855566           1981   399            488            811            283            6.6964225e-13
       142   15.865853           1981   399            488            809            285            6.6959243e-13
       143   15.87619            1981   399            488            806            288            6.6954404e-13
       144   15.886452           1982   399            488            805            290            6.6949857e-13
       145   15.89659            1982   399            488            800            295            6.6945425e-13
       146   15.909278           1984   399            488            799            298            6.6941659e-13
       147   15.919133           1984   399            488            799            298            6.6938265e-13
       148   15.928832           1984   399            488            798            299            6.6934653e-13
       149   15.938389           1984   399            488            798            299            6.6931013e-13
       150   15.96611            1985   399            488            797            301            6.6927182e-13
       151   15.976824           1985   399            488            797            301            6.6923545e-13
       152   15.986055           1985   399            488            796            302            6.6919879e-13
       153   15.995106           1986   399            488            797            302            6.691626e-13 
       154   16.007011           1986   399            488            796            303            6.691251e-13 
       155   16.018638           1988   399            490            796            303            6.6908976e-13
       156   16.027489           1989   399            490            797            303            6.6905103e-13
       157   16.038552           1990   399            490            797            304            6.6901179e-13
       158   16.05054            1991   399            490            798            304            6.6897193e-13
       159   16.062185           1993   399            491            799            304            6.6893338e-13
       160   16.088135           1993   399            491            799            304            6.6889587e-13
       161   16.096714           1993   399            491            798            305            6.6885832e-13
       162   16.109801           1994   399            491            799            305            6.6882242e-13
       163   16.117957           1994   399            491            799            305            6.6878781e-13
       164   16.126148           1994   399            491            799            305            6.6875317e-13
       165   16.137941           1994   399            491            798            306            6.6871844e-13
       166   16.149388           1994   399            491            798            306            6.6868632e-13
       167   16.157222           1994   399            491            797            307            6.6865477e-13
       168   16.165029           1994   399            491            797            307            6.6862521e-13
       169   16.176499           1995   399            491            797            308            6.6859557e-13
       170   16.208663           1995   399            491            797            308            6.685694e-13 
       171   16.21945            1995   399            491            797            308            6.6854808e-13
       172   16.230531           1996   399            491            798            308            6.6852685e-13
       173   16.23902            1997   399            491            799            308            6.685072e-13 
       174   16.273078           2000   400            491            801            308            6.6848713e-13
       175   16.322482           2001   400            491            802            308            6.6852999e-13
       176   16.350434           2002   400            491            800            311            6.6875415e-13
       177   16.390017           2003   400            492            800            311            6.6891321e-13
       178   16.425159           2006   400            493            802            311            6.6913705e-13
       179   16.461171           2007   400            493            803            311            6.692429e-13 
       180   16.524094           2008   400            493            803            312            6.6941218e-13
       181   16.576238           2009   400            493            804            312            6.6966133e-13
       182   16.632507           2012   400            493            806            313            6.7001251e-13
       183   16.689759           2013   400            493            807            313            6.7048067e-13
       184   16.76297            2016   400            493            810            313            6.7101038e-13
       185   16.842026           2018   400            493            809            316            6.7172883e-13
       186   16.918499           2023   400            493            811            319            6.7265932e-13
       187   16.999931           2028   400            493            814            321            6.7374401e-13
       188   17.080253           2033   400            493            819            321            6.7499508e-13
       189   17.171              2039   400            493            824            322            6.7636926e-13
       190   17.312974           2045   400            493            827            325            6.7797102e-13
       191   17.395374           2053   400            493            832            328            6.7972039e-13
       192   17.482609           2061   400            493            840            328            6.814395e-13 
       193   17.564925           2069   400            494            846            329            6.8327389e-13
       194   17.66276            2077   400            494            853            330            6.8519608e-13
       195   17.773372           2083   400            494            858            331            6.8726726e-13
       196   17.869334           2097   400            495            868            334            6.8963285e-13
       197   17.957152           2110   400            495            880            335            6.9210862e-13
       198   18.045085           2120   400            495            890            335            6.9462778e-13
       199   18.118662           2135   400            495            905            335            6.9722363e-13
       200   18.230967           2145   400            496            914            335            6.9979466e-13
       201   18.302764           2154   400            496            923            335            7.024565e-13 
       202   18.366644           2169   400            496            938            335            7.0508785e-13
       203   18.427511           2178   401            496            945            336            7.0766077e-13
       204   18.485876           2189   401            497            955            336            7.10176e-13  
       205   18.567386           2202   401            497            968            336            7.1263018e-13
       206   18.653803           2212   401            497            977            337            7.1516813e-13
       207   18.700968           2224   401            497            989            337            7.176985e-13 
       208   18.783781           2237   401            497            1002           337            7.2009986e-13
       209   18.860931           2248   401            497            1013           337            7.2255004e-13
       210   18.997274           2258   401            497            1023           337            7.2499438e-13
       211   19.124524           2270   401            497            1035           337            7.2780222e-13
       212   19.294924           2285   401            498            1049           337            7.3081621e-13
       213   19.471933           2295   401            498            1058           338            7.3427368e-13
       214   19.671418           2306   401            498            1069           338            7.3819374e-13
       215   19.870438           2327   401            499            1089           338            7.4266206e-13
       216   20.040625           2345   401            499            1107           338            7.4759429e-13
       217   20.215934           2366   401            499            1128           338            7.5273435e-13
       218   20.362381           2384   401            499            1146           338            7.5810131e-13
       219   20.499187           2408   401            499            1170           338            7.6346718e-13
       220   20.652926           2428   401            499            1189           339            7.6877151e-13
       221   20.7656             2455   401            500            1215           339            7.7397005e-13
       222   20.889868           2473   401            500            1233           339            7.790202e-13 
       223   21.062792           2493   401            500            1253           339            7.840911e-13 
       224   21.223766           2515   401            501            1274           339            7.8944696e-13
       225   21.448083           2536   401            501            1294           340            7.9492432e-13
       226   21.683964           2564   401            501            1322           340            8.0113814e-13
       227   21.941804           2586   401            501            1344           340            8.0772948e-13
       228   22.205255           2606   401            501            1364           340            8.1498558e-13
       229   22.48958            2646   401            501            1403           341            8.2286176e-13
       230   22.748071           2669   401            501            1426           341            8.3141854e-13
       231   22.922004           2710   401            501            1466           342            8.4010532e-13
       232   23.106002           2739   401            501            1493           344            8.4856175e-13
       233   23.264408           2769   401            501            1521           346            8.5688565e-13
       234   23.413439           2797   401            501            1540           355            8.6498712e-13
       235   23.540623           2830   401            501            1566           362            8.7278757e-13
       236   23.670837           2850   401            501            1579           369            8.8025852e-13
       237   23.921015           2886   401            501            1605           379            8.875687e-13 
       238   24.157211           2917   401            501            1633           382            8.9575279e-13
       239   24.475678           2942   401            501            1653           387            9.0415388e-13
       240   24.84188            2981   401            501            1685           394            9.1357461e-13
       241   25.210862           3025   401            501            1723           400            9.2439259e-13
       242   25.576921           3066   401            500            1758           407            9.3665069e-13
       243   25.950202           3116   401            500            1801           414            9.501107e-13 
       244   26.304661           3170   401            499            1847           423            9.6486857e-13
       245   26.637498           3223   401            499            1888           435            9.8012909e-13
       246   26.948816           3283   401            499            1942           441            9.9581495e-13
       247   27.228283           3349   401            498            2004           446            1.0116801e-12
       248   27.505953           3419   401            498            2067           453            1.0274537e-12
       249   27.769292           3481   401            498            2125           457            1.0430513e-12
       250   28.09995            3558   401            498            2199           460            1.0587017e-12
       251   28.395675           3618   401            498            2258           461            1.0746291e-12
       252   28.726186           3685   401            497            2319           468            1.0904104e-12
       253   29.086818           3761   401            497            2392           471            1.1064859e-12
       254   29.454561           3829   401            496            2459           473            1.1233484e-12
       255   29.838516           3900   401            496            2528           475            1.1407154e-12
       256   30.225228           3991   401            496            2617           477            1.159196e-12 
       257   30.610368           4076   401            495            2700           480            1.1782377e-12
       258   31.283444           4150   401            494            2772           483            1.1975543e-12
       259   31.598359           4236   401            494            2858           483            1.2170676e-12
       260   31.937438           4308   401            494            2930           483            1.2362012e-12
       261   32.231256           4392   401            492            3012           487            1.2548792e-12
       262   32.538247           4464   401            492            3083           488            1.273056e-12 
       263   32.833131           4549   401            491            3167           490            1.2908282e-12
       264   33.158414           4640   401            491            3254           494            1.3081557e-12
       265   33.56773            4716   401            491            3328           496            1.3254682e-12
       266   33.958959           4794   401            490            3406           497            1.3431721e-12
       267   34.364286           4871   401            490            3483           497            1.3612928e-12
       268   34.753844           4949   401            490            3560           498            1.3799988e-12
       269   35.153462           5041   401            490            3652           498            1.3995303e-12
       270   35.60198            5123   401            490            3734           498            1.4200671e-12
       271   36.022378           5220   401            489            3829           501            1.4414657e-12
       272   36.65045            5310   401            489            3916           504            1.4633416e-12
       273   37.045017           5412   401            489            4017           505            1.485679e-12 
       274   37.441867           5502   401            489            4107           505            1.5075797e-12
       275   37.848179           5602   401            489            4207           505            1.5294566e-12
       276   38.233401           5695   401            489            4298           507            1.5510375e-12
       277   38.640889           5787   401            489            4390           507            1.5723481e-12
       278   39.0996             5885   401            489            4487           508            1.593406e-12 
       279   39.552433           5987   401            489            4586           511            1.6149196e-12
       280   40.04               6091   401            489            4689           512            1.6372514e-12
       281   40.500049           6194   401            489            4790           514            1.6602104e-12
       282   40.952564           6312   401            489            4904           518            1.6845596e-12
       283   41.407828           6419   401            489            5006           523            1.7099382e-12
       284   41.865366           6528   401            489            5111           527            1.7361048e-12
       285   42.318019           6644   401            489            5225           529            1.762847e-12 
       286   42.768939           6770   401            489            5343           537            1.7901016e-12
       287   43.221419           6880   401            489            5441           549            1.8171767e-12
       288   43.702222           7010   401            488            5550           571            1.8440433e-12
       289   44.195335           7141   401            488            5655           597            1.8709692e-12
       290   44.730839           7269   401            488            5745           635            1.8982959e-12
       291   45.224092           7419   401            488            5850           680            1.9258727e-12
       292   45.709707           7564   401            488            5941           734            1.9541514e-12
       293   46.197293           7700   401            486            6022           791            1.9842667e-12
       294   46.744389           7853   401            486            6116           850            2.0153418e-12
       295   47.266927           7988   401            486            6200           901            2.0484223e-12
       296   47.790492           8138   401            486            6291           960            2.0826043e-12
       297   48.305298           8291   401            486            6381           1023           2.1180942e-12
       298   48.830845           8457   401            486            6473           1097           2.1540476e-12
       299   49.368101           8625   401            486            6587           1151           2.1902605e-12
       300   49.957857           8800   401            484            6706           1209           2.2266209e-12
       301   50.487932           8964   400            483            6793           1288           2.2634001e-12
       302   51.059199           9149   400            483            6919           1347           2.3003642e-12
       303   51.65766            9316   400            483            7034           1399           2.3388243e-12
       304   52.239491           9514   400            483            7164           1467           2.3790095e-12
       305   52.833885           9690   400            483            7271           1536           2.4209871e-12
       306   53.439118           9870   399            483            7389           1599           2.465439e-12 
       307   54.021653          10094   399            482            7556           1657           2.5112846e-12
       308   54.598835          10291   399            482            7685           1725           2.5585835e-12
       309   55.203146          10513   399            482            7847           1785           2.6060675e-12
       310   55.857131          10714   399            480            7995           1840           2.6535033e-12
       311   56.558426          10928   399            479            8170           1880           2.7008461e-12
       312   57.214328          11125   399            479            8324           1923           2.7508529e-12
       313   57.914942          11347   399            479            8507           1962           2.8018857e-12
       314   58.633356          11576   399            479            8683           2015           2.857557e-12 
       315   59.401698          11817   399            479            8872           2067           2.9159111e-12
       316   60.16834           12085   399            478            9095           2113           2.978308e-12 
       317   60.930738          12335   399            478            9289           2169           3.0438634e-12
       318   61.758752          12607   399            478            9512           2218           3.1122771e-12
       319   62.62895           12886   399            478            9744           2265           3.1822824e-12
       320   63.57926           13178   399            477            9969           2333           3.2542176e-12
Loop time of 63.5794 on 16 procs for 320 steps with 13178 atoms

97.5% CPU use with 16 MPI tasks x 1 OpenMP threads

MPI task timing breakdown:
Section |  min time  |  avg time  |  max time  |%varavg| %total
---------------------------------------------------------------
Pair    | 0.1049     | 0.98939    | 5.7954     | 183.7 |  1.56
Neigh   | 0.034469   | 0.39646    | 2.4129     | 118.4 |  0.62
Comm    | 11.63      | 12.782     | 14.175     |  25.6 | 20.10
Output  | 9.4434     | 9.4437     | 9.4438     |   0.0 | 14.85
Modify  | 28.409     | 35.748     | 37.938     |  48.7 | 56.23
Other   |            | 4.22       |            |       |  6.64

Nlocal:        823.625 ave        4784 max          66 min
Histogram: 12 1 1 0 0 0 0 0 0 2
Nghost:        670.938 ave        2449 max          45 min
Histogram: 9 1 2 0 0 0 2 0 0 2
Neighs:        3569.31 ave       21239 max         115 min
Histogram: 12 0 2 0 0 0 0 0 0 2

Total # of neighbors = 57109
Ave neighs/atom = 4.3336622
Neighbor list builds = 879
Dangerous builds = 102

Total wall time: 0:01:04
