LAMMPS (23 Jun 2022 - Update 4)
  using 1 OpenMP thread(s) per MPI task
package omp 0
using multi-threaded neighbor list subroutines
#-----------------------------------------------------------------------------#
#                NUFEB Simulation: Heterotrophic Biofilm Growth               #
#-----------------------------------------------------------------------------#


#-----------------------------System Settings---------------------------------#

units si                                    # using si units (m, s, kg)
atom_style      coccus                      # using nufeb coccus atom style
atom_modify     map array sort 10 0         # map array - find atoms using indices
		                            # sort every 10

boundary        pp pp ff                    # periodic boundaries in x and y
                                            # fixed boundary in z

newton          off                         # forces between local and ghost
                                            # atoms are computed in each
					     # processor without communication

processors      * * 1                       # processor grid

comm_modify     vel yes                     # communicate velocities for ghost atoms

read_data       atom_ch.in	             # read atom.in file which defines domain size
Reading data file ...
  orthogonal box = (0 0 0) to (6e-05 6e-05 6e-05)
  4 by 4 by 1 MPI processor grid
  reading atoms ...
  150 atoms
  read_data CPU = 0.032 seconds
                                            # and initial atoms


#--------------------Microbes and Functional Groups-------------------------#

group           CROSS1   type 1               # assign type 1,2 atoms to CROSS group
50 atoms in group CROSS1
group           CROSS2   type 2
50 atoms in group CROSS2
group		CHEATER  type 3
50 atoms in group CHEATER
group           dead     type 4
0 atoms in group dead

neighbor        5e-7 bin                   # setting neighbour skin distance and style

neigh_modify    check yes                  # rebuild neighbour list if any atom
                                           # had moved more than half the skin distance


#--------------------------Mesh Grid and Substrates--------------------------#

# defining grid sytle, substrate names, and grid size
grid_style      nufeb/chemostat 3 sub metab1 metab2 5e-6

# set diffusion boundary conditions and initial concentrations (liquid:kg/m3)
grid_modify     set sub      pp pp nd  1.8e-4
No /omp style for force computation currently active
grid_modify     set metab1   pp pp nd  1e-4
No /omp style for force computation currently active
grid_modify     set metab2   pp pp nd  1e-4
No /omp style for force computation currently active


#--------------------------Biological Processes-------------------------------#

# heterotrophs growth
fix growth_cross1 CROSS1 nufeb/growth/cross1 sub 3.5e-5 metab2 4e-3 metab1 growth 0.009 yield 0.6 decay 2.6e-6 metab1_exp 20

fix growth_cross2 CROSS2 nufeb/growth/cross2 sub 3.5e-5 metab1 4e-3 metab2 growth 0.009 yield 0.6 decay 2.6e-6 metab2_exp 20

fix growth_cheater CHEATER nufeb/growth/cheater sub 3.5e-5 metab1 1e-3 metab2 1e-3 growth 0.009 yield 0.6 decay 2.6e-6
# heterotrophs division, division diameter: 1.36e-6
fix div1 CROSS1 nufeb/division/coccus 1.36e-6 167
fix div2 CROSS2 nufeb/division/coccus 1.36e-6 362
fix div3 CHEATER nufeb/division/coccus 1.36e-6 685

fix death1 CROSS1 nufeb/death/diameter dead 5.43e-7
fix death2 CROSS2 nufeb/death/diameter dead 5.43e-7
fix death3 CHEATER nufeb/death/diameter dead 5.43e-7

#---------------------------Physical Processes--------------------------------#

pair_style  gran/hooke/history 1e-4 NULL 1e-5 NULL 0.0 0    # pairwise interaction
pair_coeff  * *                                             # between atoms

# pairwise interaction between z-wall and atoms
fix wall all wall/gran hooke/history 1e-3 NULL 1e-4 NULL 0 0 zplane 0.0 1e-04

fix vis all viscous 1e-5                                    # viscous damping force

fix grav all gravity 9.81 vector 0.0 0.0 -1.0

fix nve all nve/limit 1e-7                                  # NVE integration with
                                                            # maximum distance limit


#---------------------------Post-Physical Processes---------------------------#

fix coeff_sub all nufeb/diffusion_coeff sub ratio 0.8       # defining diffusion coeff in the biofilm
fix coeff_metab1 all nufeb/diffusion_coeff metab1 ratio 0.8    # region is 80% of the value in liquid
fix coeff_metab2 all nufeb/diffusion_coeff metab2 ratio 0.8

#---------------------------Chemical Processes---------------------------------#

fix diff_sub all nufeb/diffusion_reaction sub 1e-9        # diffusion reaction for updating
fix diff_metab1 all nufeb/diffusion_reaction metab1 4e-9     # distribusion of substrate concentration
fix diff_metab2 all nufeb/diffusion_reaction metab2 4e-9

#--------------------------Computations and Outputs----------------------------#

variable mass equal "mass(all)"                             # total mass
variable ncross1 equal "count(CROSS1)"                      # total # of CROSS1
variable ncross2 equal "count(CROSS2)"                      # total # of CROSS2
variable ncheater equal "count(CHEATER)"
variable ndead equal "count(dead)"

shell mkdir vtk_NEPS_ch                                            # dump vtk files to /vtk folder
dump du1 all vtk 10 vtk_NEPS_ch/dump*.vtu id type diameter         # require build NUFEB with vtk option
dump du2 all grid/vtk 10 vtk_NEPS_ch/dump_%_*.vti con rea den gro

#dump du3 all movie 10 movie.avi type diameter view 80 60    # dump video
#dump_modify du3 acolor 1 blue acolor 2 lightgrey framerate 10


                                                            # dump hdf5 files to /hdf5 folder
#shell mkdir hdf5                                           # require build NUFEB with hdf5 option
#dump du3 all nufeb/hdf5 10 dump.h5 id type x y z vx vy vz fx fy fz radius conc reac

thermo_style custom step cpu atoms v_ncross1 v_ncross2 v_ncheater v_ndead v_mass     # screen and log outputs
thermo 1
thermo_modify   lost ignore

#-----------------------------------Run----------------------------------------#

# issue run command, define timesteps for physical (pairdt) and chemical (diffdt) processes
run_style nufeb diffdt 1e-4 difftol 1e-6 pairdt 1e-2 pairtol 1 pairmax 1000 diffmax 5000

timestep 12000                                               # define biological timesteps (1000s)

run 320                                                    # growing biofilm for 900x1000s
Generated 0 of 6 mixed pair_coeff terms from geometric mixing rule
Last active /omp style is pair_style gran/hooke/history/omp
Neighbor list info ...
  update every 1 steps, delay 10 steps, check yes
  max neighbors/atom: 2000, page size: 100000
  master list distance cutoff = 2.49e-06
  ghost atom cutoff = 2.49e-06
  binsize = 1.245e-06, bins = 49 49 49
  1 neighbor lists, perpetual/occasional/extra = 1 0 0
  (1) pair gran/hooke/history/omp, perpetual
      attributes: half, newton off, size, history, omp
      pair build: half/size/bin/newtoff/omp
      stencil: full/bin/3d
      bin: standard
Per MPI rank memory allocation (min/avg/max) = 11.02 | 11.02 | 11.02 Mbytes
   Step          CPU          Atoms      v_ncross1      v_ncross2      v_ncheater      v_ndead         v_mass    
         0   0                    150   50             50             50             0              1.3295396e-13
         1   0.38789035           273   96             91             86             0              1.9616795e-13
         2   0.75740875           433   149            148            136            0              2.2408675e-13
         3   1.076485             541   170            196            175            0              2.4532646e-13
         4   1.3718773            585   186            209            190            0              2.6423918e-13
         5   1.5651989            625   199            221            205            0              2.8171426e-13
         6   1.7224177            664   214            233            217            0              2.9843752e-13
         7   1.8543469            701   225            247            229            0              3.1439759e-13
         8   2.0196939            734   233            259            242            0              3.2974503e-13
         9   2.1482839            770   241            266            263            0              3.4449149e-13
        10   2.292328             801   250            273            278            0              3.58484e-13  
        11   2.4144643            838   260            286            292            0              3.7180206e-13
        12   2.5280394            869   264            294            311            0              3.8443015e-13
        13   2.6390736            897   279            298            320            0              3.9653309e-13
        14   2.7404661            927   286            300            341            0              4.0812898e-13
        15   2.8386112            953   293            304            356            0              4.1923383e-13
        16   2.9347848            986   301            313            372            0              4.2977807e-13
        17   3.0190213           1007   303            318            386            0              4.396084e-13 
        18   3.0931806           1038   310            327            401            0              4.488885e-13 
        19   3.1629746           1058   319            331            408            0              4.5773424e-13
        20   3.2525764           1086   326            339            421            0              4.6613773e-13
        21   3.3253558           1109   332            344            433            0              4.7425024e-13
        22   3.3862768           1136   339            347            450            0              4.8198874e-13
        23   3.4521752           1160   342            352            466            0              4.8946159e-13
        24   3.5190785           1180   347            353            480            0              4.9657609e-13
        25   3.5804735           1200   349            355            496            0              5.0349447e-13
        26   3.6425835           1221   354            359            508            0              5.1010515e-13
        27   3.7009876           1242   358            363            521            0              5.1646275e-13
        28   3.7556969           1261   361            367            533            0              5.2255598e-13
        29   3.806454            1277   362            370            545            0              5.283603e-13 
        30   12.746667           1288   364            372            552            0              5.3390451e-13
        31   12.799366           1304   367            375            562            0              5.3914963e-13
        32   12.870394           1325   371            379            575            0              5.4422983e-13
        33   12.927095           1346   373            379            594            0              5.4910229e-13
        34   12.976258           1359   375            380            604            0              5.5374365e-13
        35   13.022735           1370   377            383            610            0              5.5817124e-13
        36   13.066106           1384   382            384            618            0              5.6243708e-13
        37   13.130755           1398   387            385            626            0              5.6652079e-13
        38   13.1979             1414   389            387            638            0              5.7048594e-13
        39   13.285649           1434   390            389            655            0              5.7430473e-13
        40   13.395231           1451   391            390            670            0              5.7806126e-13
        41   13.484994           1461   393            390            678            0              5.8179218e-13
        42   13.564119           1471   394            392            685            0              5.854906e-13 
        43   13.642738           1489   398            392            699            0              5.8890222e-13
        44   13.730753           1497   399            393            705            0              5.9224825e-13
        45   13.84241            1511   400            395            716            0              5.9563497e-13
        46   13.968049           1525   403            395            727            0              5.9939687e-13
        47   14.089812           1541   403            397            741            0              6.0324511e-13
        48   14.20691            1554   403            397            754            0              6.0735933e-13
        49   14.309698           1569   404            398            767            0              6.115819e-13 
        50   25.847648           1588   406            398            784            0              6.157781e-13 
        51   25.95763            1601   406            399            796            0              6.2006425e-13
        52   26.08745            1615   408            400            807            0              6.2437566e-13
        53   26.199733           1633   408            401            824            0              6.2889739e-13
        54   26.307054           1657   412            403            840            2              6.3349343e-13
        55   26.399629           1671   413            403            853            2              6.3810235e-13
        56   26.476426           1690   414            404            869            3              6.426403e-13 
        57   26.557769           1705   414            405            881            5              6.4695959e-13
        58   26.637978           1724   416            405            897            6              6.5119296e-13
        59   26.705424           1735   416            406            903            10             6.5540002e-13
        60   26.787826           1748   418            406            913            11             6.5945709e-13
        61   26.848524           1774   421            407            927            19             6.6330614e-13
        62   26.906207           1792   422            408            939            23             6.6700147e-13
        63   26.988918           1810   422            411            947            30             6.7055698e-13
        64   27.079173           1826   422            412            958            34             6.7411898e-13
        65   27.161475           1840   422            412            965            41             6.7765684e-13
        66   27.254485           1851   423            414            963            51             6.8110312e-13
        67   27.357463           1870   423            414            979            54             6.8469322e-13
        68   27.530878           1885   426            416            980            63             6.8821834e-13
        69   27.68105            1903   428            416            989            70             6.9241134e-13
        70   27.844769           1925   430            416            998            81             6.9671698e-13
        71   28.043119           1935   430            417            996            92             7.011637e-13 
        72   28.243715           1965   431            419            1010           105            7.062288e-13 
        73   28.426741           1979   431            419            1020           109            7.1171437e-13
        74   28.600017           2006   431            419            1040           116            7.1743948e-13
        75   28.766573           2021   431            420            1047           123            7.2331036e-13
        76   28.912068           2046   431            420            1063           132            7.2926202e-13
        77   29.039939           2069   432            420            1083           134            7.3516098e-13
        78   29.160239           2097   433            420            1103           141            7.4092257e-13
        79   29.261845           2119   434            420            1120           145            7.4648911e-13
        80   29.382169           2137   435            420            1133           149            7.5184463e-13
        81   29.475276           2162   435            420            1153           154            7.5698567e-13
        82   29.578358           2181   436            421            1168           156            7.6193667e-13
        83   29.706593           2197   436            421            1180           160            7.6684547e-13
        84   29.824093           2219   436            422            1200           161            7.7188016e-13
        85   30.017311           2240   436            423            1214           167            7.7680711e-13
        86   30.249331           2262   436            423            1228           175            7.8217053e-13
        87   30.512955           2295   436            423            1256           180            7.8848451e-13
        88   30.815936           2318   436            423            1277           182            7.954549e-13 
        89   31.071083           2347   436            423            1301           187            8.0341828e-13
        90   31.388861           2378   436            423            1325           194            8.1189589e-13
        91   31.657722           2417   436            423            1362           196            8.2103205e-13
        92   31.917738           2449   436            423            1391           199            8.306014e-13 
        93   32.143963           2482   437            423            1422           200            8.4051439e-13
        94   32.337254           2524   437            423            1462           202            8.5045459e-13
        95   32.517712           2558   437            423            1491           207            8.6022617e-13
        96   32.684717           2599   439            423            1522           215            8.698247e-13 
        97   32.829311           2640   439            423            1559           219            8.7923646e-13
        98   32.986616           2677   440            423            1593           221            8.8837055e-13
        99   33.211507           2714   440            423            1625           226            8.9742463e-13
       100   33.480248           2755   440            423            1663           229            9.0699079e-13
       101   33.761665           2800   439            423            1704           234            9.1687873e-13
       102   34.087394           2844   438            421            1747           238            9.2729478e-13
       103   34.456536           2883   438            421            1778           246            9.3884289e-13
       104   34.789053           2932   437            421            1822           252            9.5172251e-13
       105   35.16672            2992   437            421            1875           259            9.6513763e-13
       106   35.516419           3049   437            421            1930           261            9.79747e-13  
       107   35.861725           3104   436            420            1975           273            9.9485005e-13
       108   36.145664           3176   436            419            2039           282            1.0104113e-12
       109   36.422391           3233   436            418            2089           290            1.0258503e-12
       110   36.710554           3295   435            418            2147           295            1.0411312e-12
       111   36.959009           3373   434            418            2217           304            1.0561152e-12
       112   37.231832           3441   434            418            2281           308            1.0709068e-12
       113   37.471241           3498   434            418            2329           317            1.0856761e-12
       114   37.760172           3561   434            418            2391           318            1.0999629e-12
       115   38.092504           3626   434            418            2449           325            1.1144295e-12
       116   38.454857           3699   434            418            2517           330            1.1299751e-12
       117   38.839064           3762   433            418            2574           337            1.1457002e-12
       118   39.214971           3838   433            418            2645           342            1.1627239e-12
       119   39.589676           3917   433            418            2719           347            1.1805653e-12
       120   39.936188           4001   433            418            2797           353            1.1989568e-12
       121   40.287035           4061   433            418            2850           360            1.2170676e-12
       122   40.607575           4154   433            418            2940           363            1.2351524e-12
       123   40.921938           4233   432            418            3012           371            1.2530715e-12
       124   41.175631           4295   432            418            3069           376            1.270633e-12 
       125   41.472626           4369   432            418            3137           382            1.2877228e-12
       126   41.836075           4462   432            418            3229           383            1.3045217e-12
       127   42.210512           4538   432            418            3304           384            1.3220954e-12
       128   42.600756           4629   432            418            3390           389            1.3402139e-12
       129   42.98986            4713   432            418            3473           390            1.3589928e-12
       130   43.405002           4797   432            418            3553           394            1.3784962e-12
       131   43.797727           4879   432            418            3633           396            1.3987936e-12
       132   44.180777           4957   432            418            3709           398            1.4199964e-12
       133   44.560275           5050   432            418            3800           400            1.4417324e-12
       134   44.92728            5145   432            418            3895           400            1.4635276e-12
       135   45.294041           5248   432            418            3996           402            1.485078e-12 
       136   45.647376           5347   432            418            4092           405            1.5065569e-12
       137   45.984673           5433   432            418            4172           411            1.5277547e-12
       138   46.336647           5530   432            418            4265           415            1.5484555e-12
       139   46.708749           5623   432            418            4349           424            1.5691823e-12
       140   47.150096           5730   432            418            4449           431            1.5898495e-12
       141   47.542033           5818   432            418            4525           443            1.6127605e-12
       142   47.953565           5920   432            418            4616           454            1.6353196e-12
       143   48.365907           6040   432            418            4722           468            1.6595893e-12
       144   48.793967           6144   432            418            4799           495            1.6846167e-12
       145   49.21415            6253   432            418            4883           520            1.7102075e-12
       146   49.639184           6362   432            417            4970           543            1.7363761e-12
       147   50.048588           6472   432            417            5048           575            1.7626393e-12
       148   50.471028           6581   432            416            5131           602            1.7885001e-12
       149   50.907795           6694   432            416            5216           630            1.8142968e-12
       150   51.371903           6820   432            416            5307           665            1.840069e-12 
       151   51.831934           6921   432            416            5379           694            1.8665286e-12
       152   52.303036           7048   432            416            5474           726            1.8944898e-12
       153   52.763504           7195   432            416            5593           754            1.924972e-12 
       154   53.209549           7330   432            416            5690           792            1.9574751e-12
       155   53.649504           7469   431            416            5787           835            1.9917511e-12
       156   54.105167           7619   431            415            5887           886            2.0275251e-12
       157   54.56087            7773   431            415            5996           931            2.0641363e-12
       158   55.008474           7927   431            415            6100           981            2.1016819e-12
       159   55.487668           8098   431            415            6236           1016           2.139318e-12 
       160   55.995086           8254   431            414            6338           1071           2.1774016e-12
       161   56.47613            8424   431            414            6462           1117           2.2159586e-12
       162   56.970332           8618   431            414            6615           1158           2.2558751e-12
       163   57.470567           8817   431            413            6785           1188           2.2976224e-12
       164   57.988321           9014   431            413            6936           1234           2.3407824e-12
       165   58.506438           9201   431            413            7079           1278           2.3860388e-12
       166   59.047081           9409   431            413            7250           1315           2.4331423e-12
       167   59.575178           9629   431            413            7426           1359           2.4816175e-12
       168   60.139988           9837   431            413            7588           1405           2.5310186e-12
       169   60.729016          10043   431            413            7745           1454           2.5801721e-12
       170   61.354285          10243   431            411            7895           1506           2.6311382e-12
       171   61.954202          10481   431            411            8083           1556           2.6839877e-12
       172   62.553299          10715   431            411            8269           1604           2.7393672e-12
       173   63.159485          10989   431            411            8491           1656           2.797781e-12 
       174   63.83952           11232   431            411            8691           1699           2.8598636e-12
       175   64.483766          11492   431            411            8907           1743           2.9255498e-12
       176   65.177001          11741   430            411            9102           1798           2.993626e-12 
       177   65.93137           12033   430            411            9345           1847           3.0637993e-12
       178   66.672355          12310   429            411            9565           1905           3.135811e-12 
       179   67.436184          12592   429            410            9779           1974           3.2129351e-12
       180   68.306698          12925   429            410            10057          2029           3.2964475e-12
       181   69.132666          13269   429            410            10344          2086           3.3884682e-12
       182   70.01923           13613   429            410            10623          2151           3.4879067e-12
       183   71.03267           14002   429            410            10957          2206           3.5971541e-12
       184   72.208439          14436   428            410            11344          2254           3.7142735e-12
       185   73.397233          14823   428            409            11677          2309           3.8363166e-12
       186   74.778863          15252   428            408            12053          2363           3.9610243e-12
       187   76.162741          15732   428            408            12487          2409           4.0935993e-12
       188   77.742576          16166   428            408            12869          2461           4.228097e-12 
       189   79.443422          16658   427            406            13299          2526           4.3582418e-12
       190   81.30746           17112   427            406            13690          2589           4.4851877e-12
       191   83.138087          17580   426            405            14113          2636           4.62452e-12  
       192   85.066881          18055   426            403            14548          2678           4.765443e-12 
       193   86.9963            18576   426            403            15012          2735           4.9062273e-12
       194   88.982579          19071   426            402            15450          2793           5.0552934e-12
       195   91.005709          19602   425            402            15937          2838           5.2009666e-12
       196   93.105506          20163   425            402            16450          2886           5.3546558e-12
       197   95.274687          20713   425            399            16959          2930           5.5049154e-12
       198   97.510966          21263   425            397            17458          2983           5.6493137e-12
       199   99.773749          21847   425            395            17969          3058           5.8108083e-12
       200   102.15718          22496   425            393            18539          3139           5.9883168e-12
       201   104.52105          23115   424            392            19069          3230           6.1712209e-12
       202   106.91565          23776   423            392            19647          3314           6.340527e-12 
       203   109.32386          24393   422            390            20175          3406           6.5208503e-12
       204   111.78273          25064   421            389            20759          3495           6.7055696e-12
       205   114.26001          25761   420            385            21372          3584           6.8779753e-12
       206   116.75965          26434   419            382            21931          3702           7.0644424e-12
       207   119.25494          27128   418            379            22487          3844           7.2587483e-12
       208   121.77049          27818   416            379            23051          3972           7.4515676e-12
       209   124.30111          28611   415            375            23688          4133           7.6543441e-12
       210   126.90222          29395   412            373            24276          4334           7.8701485e-12
       211   129.42046          30125   410            370            24816          4529           8.0800611e-12
       212   131.96673          30835   406            366            25340          4723           8.2694358e-12
       213   134.51039          31676   401            365            25984          4926           8.4837087e-12
       214   137.05123          32525   398            360            26627          5140           8.7040334e-12
       215   139.57373          33318   397            354            27196          5371           8.9033738e-12
       216   142.12778          34028   393            352            27706          5577           9.1067187e-12
       217   144.68746          34825   387            348            28249          5841           9.3171918e-12
       218   147.22322          35763   377            336            28959          6091           9.5155585e-12
       219   149.76783          36585   371            328            29560          6326           9.7138068e-12
       220   152.45859          37334   364            312            30037          6621           9.9037234e-12
       221   155.07948          38085   357            303            30510          6915           1.0083804e-11
       222   157.70029          38854   343            290            31024          7197           1.0270366e-11
       223   160.33073          39642   330            278            31555          7479           1.0420802e-11
       224   162.96269          40469   311            269            32107          7782           1.0586506e-11
       225   165.63431          41151   294            258            32563          8036           1.0718853e-11
       226   168.27803          41818   280            244            32958          8336           1.0857019e-11
       227   170.98438          42518   256            223            33393          8646           1.0989981e-11
       228   173.71088          43095   235            200            33708          8952           1.1061837e-11
       229   176.39031          43794   220            182            34166          9226           1.1164987e-11
       230   179.21881          44477   194            163            34618          9502           1.12585e-11  
       231   181.94775          45090   166            144            35020          9760           1.1368733e-11
       232   184.69188          45546   143            120            35273          10010          1.1410486e-11
       233   187.43222          46150   118            106            35687          10239          1.1486429e-11
       234   190.21643          46727   100            94             36105          10428          1.1509394e-11
       235   193.00235          47263   83             77             36470          10633          1.1566851e-11
       236   195.79414          47850   67             59             36885          10839          1.162904e-11 
       237   198.62311          48279   58             49             37130          11042          1.1662228e-11
       238   201.50915          48796   50             40             37455          11251          1.1711916e-11
       239   204.41536          49290   45             31             37750          11464          1.1729738e-11
       240   207.49491          49879   33             25             38128          11693          1.1759366e-11
       241   210.44822          50331   25             16             38331          11959          1.1772784e-11
       242   213.45575          50673   17             14             38388          12254          1.175386e-11 
       243   216.44521          51107   11             10             38570          12516          1.1760035e-11
       244   219.45793          51594   5              6              38764          12819          1.1775254e-11
       245   222.52225          52046   1              4              38915          13126          1.1787221e-11
       246   225.61432          52403   0              3              38976          13424          1.1766605e-11
       247   228.69054          52814   0              3              39073          13738          1.1770704e-11
       248   231.791            53166   0              3              39123          14040          1.1759574e-11
       249   234.96987          53624   0              2              39272          14350          1.1763969e-11
       250   238.30247          54046   0              2              39362          14682          1.1778651e-11
       251   241.48886          54482   0              2              39482          14998          1.1765613e-11
       252   244.74826          54789   0              2              39482          15305          1.1744748e-11
       253   247.98366          55199   0              2              39584          15613          1.1755082e-11
       254   251.27969          55587   0              2              39679          15906          1.1738663e-11
       255   254.58406          55978   0              2              39785          16191          1.1739234e-11
       256   257.88364          56330   0              2              39828          16500          1.17376e-11  
       257   261.25563          56646   0              2              39843          16801          1.1707322e-11
       258   264.62868          57169   0              2              40047          17120          1.1737812e-11
       259   268.03924          57544   0              2              40121          17421          1.1728354e-11
       260   271.63107          57839   0              2              40130          17707          1.1698299e-11
       261   275.09133          58171   0              2              40183          17986          1.1716213e-11
       262   278.58725          58585   0              2              40287          18296          1.1710351e-11
       263   282.15306          58948   0              2              40336          18610          1.1719274e-11
       264   285.74367          59319   0              2              40385          18932          1.1701491e-11
       265   289.43131          59682   0              2              40452          19228          1.1687969e-11
       266   293.10173          60031   0              2              40499          19530          1.1690832e-11
       267   296.79362          60347   0              2              40503          19842          1.1670871e-11
       268   300.57743          60664   0              2              40488          20174          1.1649531e-11
       269   304.34684          61063   0              2              40545          20516          1.1667565e-11
       270   308.38622          61429   0              2              40583          20844          1.1662541e-11
       271   312.24188          61801   0              2              40608          21191          1.1672907e-11
       272   316.11868          62055   0              2              40520          21533          1.1654052e-11
       273   320.13261          62428   0              2              40540          21886          1.1659526e-11
       274   324.08013          62848   0              2              40596          22250          1.1674626e-11
       275   328.07303          63146   0              2              40503          22641          1.1669802e-11
       276   332.10766          63458   0              2              40436          23020          1.1659309e-11
       277   336.14559          63790   0              2              40371          23417          1.1647195e-11
       278   340.26058          64095   0              2              40271          23822          1.1631296e-11
       279   344.37688          64437   0              2              40190          24245          1.1634275e-11
       280   348.5035           64730   0              2              40040          24688          1.1645432e-11
       281   352.51024          65113   0              2              39974          25137          1.1662356e-11
       282   356.69224          65413   0              2              39783          25628          1.1649612e-11
       283   360.83895          65766   0              2              39658          26106          1.1645616e-11
       284   365.0328           66064   0              2              39499          26563          1.1642527e-11
       285   369.23712          66403   0              2              39317          27084          1.1654645e-11
       286   373.50654          66692   0              2              39155          27535          1.1656189e-11
       287   377.68533          67024   0              2              39000          28022          1.1670693e-11
       288   381.95437          67393   0              2              38889          28502          1.1675895e-11
       289   386.21718          67747   0              2              38742          29003          1.1708934e-11
       290   390.78962          68006   0              2              38529          29475          1.1688097e-11
       291   395.2024           68312   0              2              38374          29936          1.1693558e-11
       292   399.56657          68676   0              2              38260          30414          1.1719567e-11
       293   404.05974          68985   0              2              38091          30892          1.1713952e-11
       294   408.53862          69303   0              2              37949          31352          1.1724521e-11
       295   413.06819          69652   0              2              37839          31811          1.1735823e-11
       296   417.57537          70004   0              2              37711          32291          1.1763375e-11
       297   422.13384          70235   0              2              37480          32753          1.1768096e-11
       298   426.79304          70538   0              2              37342          33194          1.1753507e-11
       299   431.43295          70857   0              2              37248          33607          1.1766693e-11
       300   436.29825          71246   0              2              37193          34051          1.1789871e-11
       301   441.09801          71459   0              2              36976          34481          1.1763375e-11
       302   445.94868          71727   0              2              36846          34879          1.1779139e-11
       303   450.77267          72033   0              2              36783          35248          1.1777888e-11
       304   455.5847           72372   0              2              36763          35607          1.1797697e-11
       305   460.45901          72711   0              2              36728          35981          1.1804545e-11
       306   465.40851          73080   0              2              36712          36366          1.1844619e-11
       307   470.38676          73256   0              2              36505          36749          1.1841669e-11
       308   475.45938          73591   0              2              36469          37120          1.1842397e-11
       309   480.59992          73883   0              2              36368          37513          1.1822738e-11
       310   485.93279          74274   0              2              36411          37861          1.1866469e-11
       311   491.09682          74494   0              2              36254          38238          1.1866474e-11
       312   496.26544          74774   0              2              36162          38610          1.1880976e-11
       313   501.45899          75075   0              2              36137          38936          1.1893009e-11
       314   506.74294          75464   0              2              36178          39284          1.1916631e-11
       315   512.04858          75724   0              2              36094          39628          1.1914843e-11
       316   517.42507          76156   0              2              36184          39970          1.1947375e-11
       317   522.85343          76335   0              2              36043          40290          1.1929399e-11
       318   528.34895          76556   0              2              35930          40624          1.194071e-11 
       319   533.89072          76902   0              2              35939          40961          1.1946102e-11
       320   539.64748          77191   0              2              35874          41315          1.1950704e-11
Loop time of 539.648 on 16 procs for 320 steps with 77191 atoms

96.2% CPU use with 16 MPI tasks x 1 OpenMP threads

MPI task timing breakdown:
Section |  min time  |  avg time  |  max time  |%varavg| %total
---------------------------------------------------------------
Pair    | 109.57     | 141.21     | 200.21     | 262.3 | 26.17
Neigh   | 16.81      | 31.706     | 66.17      | 320.4 |  5.88
Comm    | 72.782     | 95.01      | 124.34     | 193.8 | 17.61
Output  | 22.723     | 22.723     | 22.723     |   0.0 |  4.21
Modify  | 125.13     | 230.05     | 295.33     | 402.2 | 42.63
Other   |            | 18.95      |            |       |  3.51

Nlocal:        4824.44 ave        7915 max        3511 min
Histogram: 5 7 0 0 0 0 0 0 0 4
Nghost:         3861.5 ave        6220 max        2724 min
Histogram: 4 8 0 0 0 0 0 0 0 4
Neighs:        37784.4 ave       47526 max       31490 min
Histogram: 4 0 5 3 0 0 0 0 1 3

Total # of neighbors = 604551
Ave neighs/atom = 7.8318845
Neighbor list builds = 4464
Dangerous builds = 370

Total wall time: 0:09:00
