LAMMPS (23 Jun 2022 - Update 4)
  using 1 OpenMP thread(s) per MPI task
package omp 0
using multi-threaded neighbor list subroutines
#-----------------------------------------------------------------------------#
#                NUFEB Simulation: Heterotrophic Biofilm Growth               #
#-----------------------------------------------------------------------------#


#-----------------------------System Settings---------------------------------#

units si                                    # using si units (m, s, kg)
atom_style      coccus                      # using nufeb coccus atom style
atom_modify     map array sort 10 0         # map array - find atoms using indices
		                            # sort every 10

boundary        pp pp ff                    # periodic boundaries in x and y
                                            # fixed boundary in z

newton          off                         # forces between local and ghost
                                            # atoms are computed in each
					     # processor without communication

processors      * * 1                       # processor grid

comm_modify     vel yes                     # communicate velocities for ghost atoms

read_data       atom_ch.in	             # read atom.in file which defines domain size
Reading data file ...
  orthogonal box = (0 0 0) to (6e-05 6e-05 6e-05)
  4 by 4 by 1 MPI processor grid
  reading atoms ...
  150 atoms
  read_data CPU = 0.021 seconds
                                            # and initial atoms


#--------------------Microbes and Functional Groups-------------------------#

group           CROSS1   type 1               # assign type 1,2 atoms to CROSS group
50 atoms in group CROSS1
group           CROSS2   type 2
50 atoms in group CROSS2
group		CHEATER  type 3
50 atoms in group CHEATER
group           dead     type 4
0 atoms in group dead

neighbor        5e-7 bin                   # setting neighbour skin distance and style

neigh_modify    check yes                  # rebuild neighbour list if any atom
                                           # had moved more than half the skin distance


#--------------------------Mesh Grid and Substrates--------------------------#

# defining grid sytle, substrate names, and grid size
grid_style      nufeb/chemostat 3 sub metab1 metab2 5e-6

# set diffusion boundary conditions and initial concentrations (liquid:kg/m3)
grid_modify     set sub      pp pp nd  1.8e-4
No /omp style for force computation currently active
grid_modify     set metab1   pp pp nd  1e-4
No /omp style for force computation currently active
grid_modify     set metab2   pp pp nd  1e-4
No /omp style for force computation currently active


#--------------------------Biological Processes-------------------------------#

# heterotrophs growth
fix growth_cross1 CROSS1 nufeb/growth/cross1 sub 3.5e-5 metab2 4e-3 metab1 growth 0.009 yield 0.6 decay 2.6e-6 metab1_exp 20

fix growth_cross2 CROSS2 nufeb/growth/cross2 sub 3.5e-5 metab1 4e-3 metab2 growth 0.009 yield 0.6 decay 2.6e-6 metab2_exp 20

fix growth_cheater CHEATER nufeb/growth/cheater sub 3.5e-5 metab1 1e-3 metab2 1e-3 growth 0.009 yield 0.6 decay 2.6e-6
# heterotrophs division, division diameter: 1.36e-6
fix div1 CROSS1 nufeb/division/coccus 1.36e-6 2128
fix div2 CROSS2 nufeb/division/coccus 1.36e-6 8206
fix div3 CHEATER nufeb/division/coccus 1.36e-6 18334

fix death1 CROSS1 nufeb/death/diameter dead 5.43e-7
fix death2 CROSS2 nufeb/death/diameter dead 5.43e-7
fix death3 CHEATER nufeb/death/diameter dead 5.43e-7

#---------------------------Physical Processes--------------------------------#

pair_style  gran/hooke/history 1e-4 NULL 1e-5 NULL 0.0 0    # pairwise interaction
pair_coeff  * *                                             # between atoms

# pairwise interaction between z-wall and atoms
fix wall all wall/gran hooke/history 1e-3 NULL 1e-4 NULL 0 0 zplane 0.0 1e-04

fix vis all viscous 1e-5                                    # viscous damping force

fix grav all gravity 9.81 vector 0.0 0.0 -1.0

fix nve all nve/limit 1e-7                                  # NVE integration with
                                                            # maximum distance limit


#---------------------------Post-Physical Processes---------------------------#

fix coeff_sub all nufeb/diffusion_coeff sub ratio 0.8       # defining diffusion coeff in the biofilm
fix coeff_metab1 all nufeb/diffusion_coeff metab1 ratio 0.8    # region is 80% of the value in liquid
fix coeff_metab2 all nufeb/diffusion_coeff metab2 ratio 0.8

#---------------------------Chemical Processes---------------------------------#

fix diff_sub all nufeb/diffusion_reaction sub 1e-9        # diffusion reaction for updating
fix diff_metab1 all nufeb/diffusion_reaction metab1 4e-9     # distribusion of substrate concentration
fix diff_metab2 all nufeb/diffusion_reaction metab2 4e-9

#--------------------------Computations and Outputs----------------------------#

variable mass equal "mass(all)"                             # total mass
variable ncross1 equal "count(CROSS1)"                      # total # of CROSS1
variable ncross2 equal "count(CROSS2)"                      # total # of CROSS2
variable ncheater equal "count(CHEATER)"
variable ndead equal "count(dead)"

shell mkdir vtk_NEPS_ch                                            # dump vtk files to /vtk folder
dump du1 all vtk 10 vtk_NEPS_ch/dump*.vtu id type diameter         # require build NUFEB with vtk option
dump du2 all grid/vtk 10 vtk_NEPS_ch/dump_%_*.vti con rea den gro

#dump du3 all movie 10 movie.avi type diameter view 80 60    # dump video
#dump_modify du3 acolor 1 blue acolor 2 lightgrey framerate 10


                                                            # dump hdf5 files to /hdf5 folder
#shell mkdir hdf5                                           # require build NUFEB with hdf5 option
#dump du3 all nufeb/hdf5 10 dump.h5 id type x y z vx vy vz fx fy fz radius conc reac

thermo_style custom step cpu atoms v_ncross1 v_ncross2 v_ncheater v_ndead v_mass     # screen and log outputs
thermo 1
thermo_modify   lost ignore

#-----------------------------------Run----------------------------------------#

# issue run command, define timesteps for physical (pairdt) and chemical (diffdt) processes
run_style nufeb diffdt 1e-4 difftol 1e-6 pairdt 1e-2 pairtol 1 pairmax 1000 diffmax 5000

timestep 12000                                               # define biological timesteps (1000s)

run 320                                                    # growing biofilm for 900x1000s
Generated 0 of 6 mixed pair_coeff terms from geometric mixing rule
Last active /omp style is pair_style gran/hooke/history/omp
Neighbor list info ...
  update every 1 steps, delay 10 steps, check yes
  max neighbors/atom: 2000, page size: 100000
  master list distance cutoff = 2.49e-06
  ghost atom cutoff = 2.49e-06
  binsize = 1.245e-06, bins = 49 49 49
  1 neighbor lists, perpetual/occasional/extra = 1 0 0
  (1) pair gran/hooke/history/omp, perpetual
      attributes: half, newton off, size, history, omp
      pair build: half/size/bin/newtoff/omp
      stencil: full/bin/3d
      bin: standard
Per MPI rank memory allocation (min/avg/max) = 11.02 | 11.02 | 11.02 Mbytes
   Step          CPU          Atoms      v_ncross1      v_ncross2      v_ncheater      v_ndead         v_mass    
         0   0                    150   50             50             50             0              1.3295396e-13
         1   0.38473069           273   96             91             86             0              1.9616795e-13
         2   0.76352228           435   149            148            138            0              2.2374712e-13
         3   1.076092             541   172            199            170            0              2.4479734e-13
         4   1.3593147            591   184            216            191            0              2.6336079e-13
         5   1.5730743            621   194            226            201            0              2.8049277e-13
         6   1.7206362            658   209            239            210            0              2.9674553e-13
         7   1.8653297            691   220            248            223            0              3.122271e-13 
         8   1.9829559            727   230            262            235            0              3.2696837e-13
         9   2.0984827            760   237            276            247            0              3.4094501e-13
        10   2.221845             793   248            283            262            0              3.5420359e-13
        11   2.3219159            821   254            291            276            0              3.6686653e-13
        12   2.4276341            847   263            297            287            0              3.7892478e-13
        13   2.5176779            885   271            312            302            0              3.9048702e-13
        14   2.5979093            920   282            318            320            0              4.014993e-13 
        15   2.6704294            952   288            325            339            0              4.1199553e-13
        16   2.7711089            970   290            334            346            0              4.2201811e-13
        17   2.8548645            992   295            341            356            0              4.316032e-13 
        18   2.9340083           1014   296            349            369            0              4.4075605e-13
        19   3.005961            1038   304            353            381            0              4.4951856e-13
        20   3.080793            1062   310            357            395            0              4.5790443e-13
        21   3.138741            1086   315            363            408            0              4.6591259e-13
        22   3.1945579           1115   318            365            432            0              4.7353399e-13
        23   3.2768434           1132   324            368            440            0              4.8082702e-13
        24   3.3388772           1153   326            371            456            0              4.8781323e-13
        25   3.4140659           1170   328            377            465            0              4.9453763e-13
        26   3.4794576           1188   330            378            480            0              5.0090588e-13
        27   3.5390636           1208   333            381            494            0              5.0713609e-13
        28   3.6014515           1228   337            384            507            0              5.1311391e-13
        29   3.6624361           1243   343            385            515            0              5.1884676e-13
        30   3.7342825           1262   346            389            527            0              5.2430398e-13
        31   3.7958772           1282   349            391            542            0              5.2950884e-13
        32   3.8552157           1298   354            392            552            0              5.3455492e-13
        33   3.9419433           1309   356            393            560            0              5.3938232e-13
        34   4.0136017           1318   356            396            566            0              5.4397416e-13
        35   4.0728653           1333   358            399            576            0              5.4830891e-13
        36   4.1272932           1341   361            401            579            0              5.5242294e-13
        37   4.1787048           1357   364            402            591            0              5.5635302e-13
        38   4.2286769           1375   366            405            604            0              5.6010567e-13
        39   4.2613643           1385   368            407            610            0              5.6366067e-13
        40   4.3238023           1398   372            407            619            0              5.670914e-13 
        41   4.3668327           1406   373            408            625            0              5.7035234e-13
        42   4.4089995           1417   374            408            635            0              5.7346988e-13
        43   4.4482115           1429   376            409            644            0              5.7645148e-13
        44   4.4861719           1443   378            410            655            0              5.7930213e-13
        45   4.5210716           1455   379            410            666            0              5.8201697e-13
        46   4.5526963           1464   381            411            672            0              5.8459101e-13
        47   4.5855164           1474   381            413            680            0              5.8705532e-13
        48   4.6169723           1489   384            414            691            0              5.8940017e-13
        49   4.6469428           1496   385            414            697            0              5.916239e-13 
        50   4.6934049           1501   386            415            700            0              5.9372915e-13
        51   4.7269015           1513   386            416            711            0              5.9579641e-13
        52   4.7558921           1525   387            417            721            0              5.9778072e-13
        53   4.7809208           1532   387            417            728            0              5.9964481e-13
        54   4.8103538           1541   389            419            733            0              6.0142258e-13
        55   4.8370577           1543   390            419            734            0              6.0311042e-13
        56   4.8627197           1547   391            420            736            0              6.0472037e-13
        57   4.8881251           1553   392            420            739            2              6.0625932e-13
        58   4.9127394           1558   392            420            743            3              6.0773255e-13
        59   4.9374707           1563   392            420            746            5              6.0913606e-13
        60   4.9752731           1568   394            420            749            5              6.1047951e-13
        61   4.9997265           1574   395            421            751            7              6.1175355e-13
        62   5.0239795           1579   397            421            747            14             6.1297245e-13
        63   5.0472053           1580   397            421            745            17             6.1415021e-13
        64   5.0738556           1589   397            421            750            21             6.1527698e-13
        65   5.0976916           1594   397            423            748            26             6.1634485e-13
        66   5.1210757           1600   398            423            742            37             6.1737326e-13
        67   5.1458475           1608   398            423            744            43             6.1837421e-13
        68   5.1691307           1612   398            423            747            44             6.1933871e-13
        69   5.1931475           1620   401            423            746            50             6.2026097e-13
        70   5.2287672           1629   402            425            742            60             6.2115345e-13
        71   5.2514391           1633   403            425            738            67             6.2202983e-13
        72   5.274339            1635   403            425            733            74             6.2287915e-13
        73   5.3223474           1641   403            426            726            86             6.2370255e-13
        74   5.3737826           1648   403            427            721            97             6.2461094e-13
        75   5.428642            1653   405            427            718            103            6.2556511e-13
        76   5.4690221           1658   406            427            712            113            6.2663419e-13
        77   5.5036648           1663   406            427            708            122            6.2761499e-13
        78   5.5520306           1665   406            428            702            129            6.2854206e-13
        79   5.6125307           1668   406            428            702            132            6.2955342e-13
        80   5.6966105           1673   406            428            702            137            6.3066256e-13
        81   5.7759159           1676   406            428            700            142            6.3190888e-13
        82   5.8608262           1684   406            428            704            146            6.333175e-13 
        83   5.9472884           1688   406            428            706            148            6.3486852e-13
        84   6.035926            1696   406            428            708            154            6.3654732e-13
        85   6.1135636           1700   406            428            708            158            6.3838081e-13
        86   6.2054286           1710   406            428            712            164            6.4028822e-13
        87   6.2960584           1718   406            428            712            172            6.4243008e-13
        88   6.3881138           1723   406            428            714            175            6.4465585e-13
        89   6.5147159           1734   407            428            722            177            6.4703509e-13
        90   6.6182799           1742   407            429            725            181            6.4949328e-13
        91   6.6988024           1755   407            429            738            181            6.5207029e-13
        92   6.7798642           1765   407            429            746            183            6.5469022e-13
        93   6.8596406           1770   407            430            748            185            6.5736082e-13
        94   6.9298974           1784   407            430            761            186            6.6007465e-13
        95   6.9970539           1790   407            430            766            187            6.6276247e-13
        96   7.0514251           1802   407            430            774            191            6.654259e-13 
        97   7.1142307           1814   407            430            783            194            6.6802768e-13
        98   7.1839433           1825   407            430            791            197            6.705885e-13 
        99   7.2455029           1832   407            430            797            198            6.7322013e-13
       100   7.3286091           1843   407            430            807            199            6.7579754e-13
       101   7.4157187           1855   407            430            819            199            6.7841717e-13
       102   7.52727             1871   407            431            829            204            6.8117519e-13
       103   7.6067205           1882   407            431            838            206            6.8415706e-13
       104   7.7070006           1890   407            431            844            208            6.8712998e-13
       105   7.8290755           1901   407            431            852            211            6.9032325e-13
       106   7.8994275           1916   407            431            864            214            6.937403e-13 
       107   7.9858865           1924   407            431            870            216            6.9707089e-13
       108   8.093856            1934   407            431            880            216            7.0047833e-13
       109   8.1960455           1946   407            431            889            219            7.0405469e-13
       110   8.301279            1962   407            431            904            220            7.077446e-13 
       111   8.3916454           1974   407            431            915            221            7.1148799e-13
       112   8.4833981           1990   407            431            931            221            7.1524742e-13
       113   8.5636799           2006   409            431            944            222            7.1899561e-13
       114   8.6419792           2026   409            431            964            222            7.2270597e-13
       115   8.7238183           2040   409            431            977            223            7.2632689e-13
       116   8.7985143           2054   409            431            991            223            7.300496e-13 
       117   8.9071815           2069   410            431            1004           224            7.3371056e-13
       118   9.0224715           2079   410            431            1013           225            7.37583e-13  
       119   9.1440715           2091   410            431            1025           225            7.4149051e-13
       120   9.2889257           2110   410            431            1044           225            7.4561693e-13
       121   9.4175783           2132   411            431            1065           225            7.4985817e-13
       122   9.6240282           2144   411            431            1077           225            7.5428914e-13
       123   9.8139257           2159   411            431            1091           226            7.5949131e-13
       124   9.9982174           2181   411            431            1113           226            7.6514348e-13
       125   10.200711           2205   411            431            1136           227            7.7106278e-13
       126   10.404195           2228   412            431            1156           229            7.7752395e-13
       127   10.598832           2251   412            431            1178           230            7.8437555e-13
       128   10.789109           2286   412            431            1212           231            7.915467e-13 
       129   10.98298            2305   412            431            1228           234            7.9916795e-13
       130   11.178815           2343   413            431            1264           235            8.0699547e-13
       131   11.349354           2383   413            431            1303           236            8.14952e-13  
       132   11.504899           2417   413            431            1336           237            8.2298346e-13
       133   11.680474           2451   413            431            1368           239            8.3096346e-13
       134   11.842929           2476   413            431            1391           241            8.3908822e-13
       135   11.999431           2514   413            431            1427           243            8.4718629e-13
       136   12.152433           2548   414            431            1456           247            8.5522485e-13
       137   12.306134           2576   414            431            1479           252            8.6321952e-13
       138   12.455453           2604   414            431            1505           254            8.7111175e-13
       139   12.642371           2634   415            431            1529           259            8.7888806e-13
       140   12.806747           2668   415            431            1560           262            8.8705233e-13
       141   12.9928             2709   415            431            1595           268            8.9481342e-13
       142   13.176854           2740   415            431            1625           269            9.0276959e-13
       143   13.408924           2764   415            431            1644           274            9.1082646e-13
       144   13.653833           2803   415            431            1679           278            9.1915656e-13
       145   13.919288           2846   415            431            1719           281            9.2786672e-13
       146   14.184936           2885   415            431            1756           283            9.3725275e-13
       147   14.461068           2917   415            431            1784           287            9.4680432e-13
       148   14.726021           2962   415            431            1827           289            9.5677701e-13
       149   14.978409           3008   415            431            1869           293            9.6696798e-13
       150   15.231584           3055   415            431            1913           296            9.7731823e-13
       151   15.466591           3095   415            431            1951           298            9.8765554e-13
       152   15.72531            3144   415            430            1998           301            9.980505e-13 
       153   16.013501           3183   415            430            2032           306            1.0088323e-12
       154   16.311128           3226   415            430            2071           310            1.0201072e-12
       155   16.622418           3278   415            430            2123           310            1.0317165e-12
       156   16.985829           3334   414            430            2179           311            1.0439647e-12
       157   17.325525           3387   414            429            2229           315            1.0570989e-12
       158   17.672336           3440   414            429            2279           318            1.0707025e-12
       159   18.061838           3507   414            429            2341           323            1.0850673e-12
       160   18.456404           3577   413            429            2411           324            1.1003489e-12
       161   18.830977           3634   412            429            2467           326            1.1162074e-12
       162   19.186828           3707   410            429            2539           329            1.1326109e-12
       163   19.55386            3776   407            429            2605           335            1.149309e-12 
       164   19.878093           3851   405            429            2677           340            1.1663918e-12
       165   20.181471           3930   405            429            2753           343            1.1832677e-12
       166   20.496641           4001   405            429            2822           345            1.2000157e-12
       167   20.803204           4073   405            429            2892           347            1.2164666e-12
       168   21.0671             4142   404            429            2956           353            1.2327655e-12
       169   21.389477           4209   403            429            3022           355            1.2484824e-12
       170   21.775796           4292   402            429            3099           362            1.2641679e-12
       171   22.121989           4369   401            429            3174           365            1.2798361e-12
       172   22.478347           4450   400            429            3246           375            1.2958384e-12
       173   22.864447           4532   400            429            3324           379            1.3118544e-12
       174   23.26452            4603   399            429            3389           386            1.3282909e-12
       175   23.69158            4682   398            429            3466           389            1.3450541e-12
       176   24.104823           4765   398            429            3545           393            1.3627147e-12
       177   24.538995           4848   397            429            3618           404            1.3807253e-12
       178   24.953044           4934   396            429            3693           416            1.3996261e-12
       179   25.393103           5003   395            429            3753           426            1.418609e-12 
       180   25.845106           5103   394            429            3838           442            1.4379467e-12
       181   26.267957           5185   394            429            3909           453            1.457588e-12 
       182   26.66204            5281   394            429            3993           465            1.4772391e-12
       183   27.14963            5372   393            428            4066           485            1.4968912e-12
       184   27.593622           5467   392            428            4147           500            1.5168926e-12
       185   28.032347           5562   391            427            4226           518            1.5373424e-12
       186   28.4829             5648   391            427            4299           531            1.5582735e-12
       187   28.920299           5763   391            427            4403           542            1.5796296e-12
       188   29.377916           5863   391            426            4489           557            1.6013617e-12
       189   29.818706           5975   391            426            4587           571            1.6238423e-12
       190   30.290632           6080   390            425            4682           583            1.6469593e-12
       191   30.717567           6204   390            424            4794           596            1.6705809e-12
       192   31.151891           6300   390            423            4874           613            1.6943229e-12
       193   31.573159           6421   390            423            4984           624            1.7182065e-12
       194   32.026534           6539   390            423            5096           630            1.7415808e-12
       195   32.445486           6645   389            423            5192           641            1.7648499e-12
       196   32.883853           6751   389            423            5283           656            1.7876664e-12
       197   33.386512           6864   387            423            5385           669            1.8103145e-12
       198   33.885245           6974   387            423            5487           677            1.833075e-12 
       199   34.35865            7089   387            422            5589           691            1.856113e-12 
       200   34.88714            7213   387            421            5695           710            1.8800245e-12
       201   35.407265           7355   386            421            5819           729            1.9046346e-12
       202   35.877436           7469   385            420            5910           754            1.930226e-12 
       203   36.370214           7605   385            419            6016           785            1.9567585e-12
       204   36.838343           7747   385            419            6136           807            1.984221e-12 
       205   37.343135           7866   384            419            6223           840            2.0119305e-12
       206   37.829754           8002   384            419            6330           869            2.0398129e-12
       207   38.349992           8131   383            418            6432           898            2.0676607e-12
       208   38.875944           8256   383            417            6529           927            2.0954367e-12
       209   39.403865           8402   382            416            6640           964            2.122674e-12 
       210   39.984348           8544   382            416            6737           1009           2.1497671e-12
       211   40.544011           8666   381            416            6814           1055           2.1774182e-12
       212   41.067617           8821   381            416            6930           1094           2.2061354e-12
       213   41.603284           8966   381            415            7034           1136           2.2354808e-12
       214   42.16759            9104   380            415            7133           1176           2.2662661e-12
       215   42.703612           9262   380            414            7234           1234           2.2983201e-12
       216   43.25891            9409   380            413            7331           1285           2.3310309e-12
       217   43.826378           9566   380            412            7431           1343           2.3644514e-12
       218   44.414523           9751   380            412            7572           1387           2.3981433e-12
       219   45.008234           9906   380            412            7688           1426           2.4316598e-12
       220   45.720651          10049   378            412            7776           1483           2.4654019e-12
       221   46.371907          10219   378            412            7900           1529           2.5004162e-12
       222   47.03393           10386   377            412            8007           1590           2.5360733e-12
       223   47.676059          10548   377            412            8105           1654           2.5728349e-12
       224   48.362139          10730   377            412            8237           1704           2.6120472e-12
       225   49.05994           10915   377            411            8361           1766           2.6534514e-12
       226   49.752966          11120   377            411            8505           1827           2.6965862e-12
       227   50.442407          11297   377            411            8623           1886           2.7407692e-12
       228   51.187621          11524   377            410            8789           1948           2.7861321e-12
       229   51.904447          11731   377            410            8942           2002           2.8312051e-12
       230   52.702797          11934   377            409            9093           2055           2.8767349e-12
       231   53.463042          12160   377            409            9257           2117           2.924516e-12 
       232   54.260903          12382   376            409            9424           2173           2.9739181e-12
       233   55.049459          12616   376            408            9591           2241           3.0268752e-12
       234   55.829793          12836   376            408            9766           2286           3.0836806e-12
       235   56.684182          13091   376            408            9968           2339           3.1437676e-12
       236   57.630659          13347   376            408            10165          2398           3.2064965e-12
       237   58.618734          13604   375            407            10363          2459           3.2708588e-12
       238   59.63752           13872   372            406            10568          2526           3.3372039e-12
       239   60.659313          14149   372            406            10773          2598           3.4055993e-12
       240   61.837486          14456   371            406            11017          2662           3.4800413e-12
       241   63.157801          14752   370            405            11257          2720           3.5621374e-12
       242   64.480209          15088   370            400            11520          2798           3.653199e-12 
       243   65.951968          15479   369            400            11850          2860           3.753705e-12 
       244   67.454709          15823   367            400            12119          2937           3.8630186e-12
       245   69.339492          16242   364            400            12445          3033           3.9796969e-12
       246   71.507652          16667   364            400            12790          3113           4.1007774e-12
       247   73.77342           17096   362            400            13148          3186           4.2207771e-12
       248   76.411349          17546   362            396            13513          3275           4.3488841e-12
       249   79.195859          17969   362            395            13837          3375           4.4693876e-12
       250   82.247629          18416   359            394            14202          3461           4.5993349e-12
       251   85.263034          18897   359            393            14585          3560           4.7294041e-12
       252   88.349001          19365   359            393            14963          3650           4.8560622e-12
       253   91.413077          19851   357            392            15349          3753           4.9928775e-12
       254   94.491795          20367   356            391            15765          3855           5.1358133e-12
       255   97.587059          20845   355            389            16156          3945           5.2730153e-12
       256   100.68175          21392   350            387            16618          4037           5.4171593e-12
       257   103.75253          21927   349            383            17047          4148           5.5661929e-12
       258   106.81593          22431   348            382            17448          4253           5.7074833e-12
       259   109.92429          22981   347            380            17909          4345           5.8627248e-12
       260   113.0958           23558   344            378            18403          4433           6.0272678e-12
       261   116.19384          24178   341            376            18925          4536           6.2062359e-12
       262   119.32859          24790   338            375            19421          4656           6.3846576e-12
       263   122.43874          25426   331            374            19942          4779           6.5546503e-12
       264   125.49381          26090   327            372            20508          4883           6.751192e-12 
       265   128.55498          26688   327            368            20990          5003           6.9090938e-12
       266   131.61629          27352   327            365            21551          5109           7.0923486e-12
       267   134.69428          28115   322            359            22193          5241           7.2961446e-12
       268   137.77124          28791   316            357            22775          5343           7.4855476e-12
       269   140.8491           29598   311            353            23467          5467           7.7029479e-12
       270   143.99852          30348   309            344            24079          5616           7.89569e-12  
       271   147.06804          31088   302            341            24711          5734           8.0997285e-12
       272   150.13105          31907   290            336            25389          5892           8.3099685e-12
       273   153.2202           32627   282            328            25954          6063           8.5067797e-12
       274   156.33214          33423   275            319            26594          6235           8.709918e-12 
       275   159.40898          34260   267            309            27277          6407           8.9359024e-12
       276   162.51368          35092   255            300            27918          6619           9.1382485e-12
       277   165.59072          35930   245            291            28555          6839           9.3585406e-12
       278   168.68155          36694   241            273            29127          7053           9.5320405e-12
       279   171.79608          37509   233            261            29715          7300           9.7368844e-12
       280   175.02022          38287   216            242            30248          7581           9.9275128e-12
       281   178.14224          39081   196            226            30785          7874           1.011245e-11 
       282   181.27668          39880   177            212            31352          8139           1.027933e-11 
       283   184.41006          40646   165            200            31859          8422           1.0463956e-11
       284   187.56816          41481   144            182            32447          8708           1.0637734e-11
       285   190.71332          42163   130            168            32895          8970           1.0761543e-11
       286   193.88334          42845   111            142            33320          9272           1.0890373e-11
       287   197.09356          43571   95             126            33767          9583           1.1040467e-11
       288   200.3735           44222   83             104            34160          9875           1.113138e-11 
       289   203.58235          44854   74             86             34538          10156          1.1222733e-11
       290   206.94441          45477   64             68             34890          10455          1.1310538e-11
       291   210.27838          46084   51             52             35237          10744          1.13863e-11  
       292   213.59328          46628   44             43             35517          11024          1.1453341e-11
       293   216.89876          47261   35             37             35916          11273          1.1539899e-11
       294   220.34769          47858   24             29             36279          11526          1.1580359e-11
       295   223.72358          48331   20             24             36518          11769          1.1636404e-11
       296   227.13633          48915   15             17             36904          11979          1.1698706e-11
       297   230.58399          49449   10             14             37238          12187          1.1732451e-11
       298   234.077            49992   8              9              37568          12407          1.176471e-11 
       299   237.56296          50495   3              7              37878          12607          1.1795236e-11
       300   241.24142          50910   3              5              38099          12803          1.1798301e-11
       301   244.79877          51330   1              3              38274          13052          1.1804021e-11
       302   248.34363          51766   1              1              38470          13294          1.1821844e-11
       303   251.90959          52182   0              1              38633          13548          1.1812626e-11
       304   255.49328          52702   0              1              38896          13805          1.1835946e-11
       305   259.08763          53067   0              0              39013          14054          1.1823935e-11
       306   262.72981          53528   0              0              39191          14337          1.1823414e-11
       307   266.42558          53955   0              0              39288          14667          1.1857441e-11
       308   270.15392          54367   0              0              39359          15008          1.1841723e-11
       309   273.92154          54826   0              0              39505          15321          1.184416e-11 
       310   277.83044          55237   0              0              39582          15655          1.1849173e-11
       311   281.66104          55610   0              0              39622          15988          1.1838212e-11
       312   285.49593          55970   0              0              39631          16339          1.1846216e-11
       313   289.46065          56398   0              0              39733          16665          1.1825697e-11
       314   293.39713          56716   0              0              39701          17015          1.180228e-11 
       315   297.38372          57074   0              0              39747          17327          1.1779678e-11
       316   301.35905          57542   0              0              39892          17650          1.1803841e-11
       317   305.41979          57833   0              0              39887          17946          1.1776183e-11
       318   309.47957          58251   0              0              40041          18210          1.1789575e-11
       319   313.61283          58604   0              0              40095          18509          1.1783709e-11
       320   317.91198          59017   0              0              40193          18824          1.1768306e-11
Loop time of 317.912 on 16 procs for 320 steps with 59017 atoms

98.6% CPU use with 16 MPI tasks x 1 OpenMP threads

MPI task timing breakdown:
Section |  min time  |  avg time  |  max time  |%varavg| %total
---------------------------------------------------------------
Pair    | 17.754     | 42.926     | 103.82     | 315.4 | 13.50
Neigh   | 3.2395     | 10.76      | 49.039     | 333.4 |  3.38
Comm    | 39.968     | 48.417     | 62.876     |  97.6 | 15.23
Output  | 1.4645     | 1.4647     | 1.466      |   0.0 |  0.46
Modify  | 98.591     | 195.67     | 234.86     | 236.6 | 61.55
Other   |            | 18.67      |            |       |  5.87

Nlocal:        3688.56 ave       10472 max        2295 min
Histogram: 9 3 1 2 0 0 0 0 0 1
Nghost:        2772.75 ave        5136 max        1901 min
Histogram: 8 0 2 2 1 0 0 2 0 1
Neighs:        21805.6 ave       37165 max       14823 min
Histogram: 1 5 4 3 0 2 0 0 0 1

Total # of neighbors = 348889
Ave neighs/atom = 5.9116695
Neighbor list builds = 2810
Dangerous builds = 256

Total wall time: 0:05:45
