LAMMPS (23 Jun 2022 - Update 4)
  using 1 OpenMP thread(s) per MPI task
package omp 0
using multi-threaded neighbor list subroutines
#-----------------------------------------------------------------------------#
#                NUFEB Simulation: Heterotrophic Biofilm Growth               #
#-----------------------------------------------------------------------------#


#-----------------------------System Settings---------------------------------#

units si                                    # using si units (m, s, kg)
atom_style      coccus                      # using nufeb coccus atom style
atom_modify     map array sort 10 0         # map array - find atoms using indices
		                            # sort every 10

boundary        pp pp ff                    # periodic boundaries in x and y
                                            # fixed boundary in z

newton          off                         # forces between local and ghost
                                            # atoms are computed in each
					     # processor without communication

processors      * * 1                       # processor grid

comm_modify     vel yes                     # communicate velocities for ghost atoms

read_data       atom_ch.in	             # read atom.in file which defines domain size
Reading data file ...
  orthogonal box = (0 0 0) to (6e-05 6e-05 6e-05)
  4 by 4 by 1 MPI processor grid
  reading atoms ...
  150 atoms
  read_data CPU = 0.048 seconds
                                            # and initial atoms


#--------------------Microbes and Functional Groups-------------------------#

group           CROSS1   type 1               # assign type 1,2 atoms to CROSS group
50 atoms in group CROSS1
group           CROSS2   type 2
50 atoms in group CROSS2
group		CHEATER  type 3
50 atoms in group CHEATER
group           dead     type 4
0 atoms in group dead

neighbor        5e-7 bin                   # setting neighbour skin distance and style

neigh_modify    check yes                  # rebuild neighbour list if any atom
                                           # had moved more than half the skin distance


#--------------------------Mesh Grid and Substrates--------------------------#

# defining grid sytle, substrate names, and grid size
grid_style      nufeb/chemostat 3 sub metab1 metab2 5e-6

# set diffusion boundary conditions and initial concentrations (liquid:kg/m3)
grid_modify     set sub      pp pp nd  1.8e-4
No /omp style for force computation currently active
grid_modify     set metab1   pp pp nd  1e-4
No /omp style for force computation currently active
grid_modify     set metab2   pp pp nd  1e-4
No /omp style for force computation currently active


#--------------------------Biological Processes-------------------------------#

# heterotrophs growth
fix growth_cross1 CROSS1 nufeb/growth/cross1 sub 3.5e-5 metab2 4e-3 metab1 growth 0.009 yield 0.6 decay 2.6e-6 metab1_exp 20

fix growth_cross2 CROSS2 nufeb/growth/cross2 sub 3.5e-5 metab1 4e-3 metab2 growth 0.009 yield 0.6 decay 2.6e-6 metab2_exp 20

fix growth_cheater CHEATER nufeb/growth/cheater sub 3.5e-5 metab1 1e-3 metab2 1e-3 growth 0.009 yield 0.6 decay 2.6e-6
# heterotrophs division, division diameter: 1.36e-6
fix div1 CROSS1 nufeb/division/coccus 1.36e-6 112
fix div2 CROSS2 nufeb/division/coccus 1.36e-6 142
fix div3 CHEATER nufeb/division/coccus 1.36e-6 190

fix death1 CROSS1 nufeb/death/diameter dead 5.43e-7
fix death2 CROSS2 nufeb/death/diameter dead 5.43e-7
fix death3 CHEATER nufeb/death/diameter dead 5.43e-7

#---------------------------Physical Processes--------------------------------#

pair_style  gran/hooke/history 1e-4 NULL 1e-5 NULL 0.0 0    # pairwise interaction
pair_coeff  * *                                             # between atoms

# pairwise interaction between z-wall and atoms
fix wall all wall/gran hooke/history 1e-3 NULL 1e-4 NULL 0 0 zplane 0.0 1e-04

fix vis all viscous 1e-5                                    # viscous damping force

fix grav all gravity 9.81 vector 0.0 0.0 -1.0

fix nve all nve/limit 1e-7                                  # NVE integration with
                                                            # maximum distance limit


#---------------------------Post-Physical Processes---------------------------#

fix coeff_sub all nufeb/diffusion_coeff sub ratio 0.8       # defining diffusion coeff in the biofilm
fix coeff_metab1 all nufeb/diffusion_coeff metab1 ratio 0.8    # region is 80% of the value in liquid
fix coeff_metab2 all nufeb/diffusion_coeff metab2 ratio 0.8

#---------------------------Chemical Processes---------------------------------#

fix diff_sub all nufeb/diffusion_reaction sub 1e-9        # diffusion reaction for updating
fix diff_metab1 all nufeb/diffusion_reaction metab1 4e-9     # distribusion of substrate concentration
fix diff_metab2 all nufeb/diffusion_reaction metab2 4e-9

#--------------------------Computations and Outputs----------------------------#

variable mass equal "mass(all)"                             # total mass
variable ncross1 equal "count(CROSS1)"                      # total # of CROSS1
variable ncross2 equal "count(CROSS2)"                      # total # of CROSS2
variable ncheater equal "count(CHEATER)"
variable ndead equal "count(dead)"

shell mkdir vtk_NEPS_ch                                            # dump vtk files to /vtk folder
dump du1 all vtk 10 vtk_NEPS_ch/dump*.vtu id type diameter         # require build NUFEB with vtk option
dump du2 all grid/vtk 10 vtk_NEPS_ch/dump_%_*.vti con rea den gro

#dump du3 all movie 10 movie.avi type diameter view 80 60    # dump video
#dump_modify du3 acolor 1 blue acolor 2 lightgrey framerate 10


                                                            # dump hdf5 files to /hdf5 folder
#shell mkdir hdf5                                           # require build NUFEB with hdf5 option
#dump du3 all nufeb/hdf5 10 dump.h5 id type x y z vx vy vz fx fy fz radius conc reac

thermo_style custom step cpu atoms v_ncross1 v_ncross2 v_ncheater v_ndead v_mass     # screen and log outputs
thermo 1
thermo_modify   lost ignore

#-----------------------------------Run----------------------------------------#

# issue run command, define timesteps for physical (pairdt) and chemical (diffdt) processes
run_style nufeb diffdt 1e-4 difftol 1e-6 pairdt 1e-2 pairtol 1 pairmax 1000 diffmax 5000

timestep 12000                                               # define biological timesteps (1000s)

run 320                                                    # growing biofilm for 900x1000s
Generated 0 of 6 mixed pair_coeff terms from geometric mixing rule
Last active /omp style is pair_style gran/hooke/history/omp
Neighbor list info ...
  update every 1 steps, delay 10 steps, check yes
  max neighbors/atom: 2000, page size: 100000
  master list distance cutoff = 2.49e-06
  ghost atom cutoff = 2.49e-06
  binsize = 1.245e-06, bins = 49 49 49
  1 neighbor lists, perpetual/occasional/extra = 1 0 0
  (1) pair gran/hooke/history/omp, perpetual
      attributes: half, newton off, size, history, omp
      pair build: half/size/bin/newtoff/omp
      stencil: full/bin/3d
      bin: standard
Per MPI rank memory allocation (min/avg/max) = 11.02 | 11.02 | 11.02 Mbytes
   Step          CPU          Atoms      v_ncross1      v_ncross2      v_ncheater      v_ndead         v_mass    
         0   0                    150   50             50             50             0              1.3295396e-13
         1   0.38428577           273   96             91             86             0              1.9616795e-13
         2   0.75977529           434   149            149            136            0              2.2362556e-13
         3   1.0705514            535   173            197            165            0              2.4430348e-13
         4   1.3571688            581   186            213            182            0              2.6272103e-13
         5   1.5541978            622   200            228            194            0              2.7970742e-13
         6   1.6922315            657   210            240            207            0              2.9578363e-13
         7   1.8367833            692   221            253            218            0              3.1098502e-13
         8   1.9670665            732   233            264            235            0              3.2551441e-13
         9   2.1150912            760   242            275            243            0              3.3927868e-13
        10   2.2558961            788   251            281            256            0              3.5251305e-13
        11   2.3491417            821   258            290            273            0              3.6504558e-13
        12   2.4509788            852   266            303            283            0              3.7689586e-13
        13   2.550927             879   276            307            296            0              3.8830968e-13
        14   2.6450157            911   286            317            308            0              3.9910953e-13
        15   2.7323158            940   294            324            322            0              4.0938364e-13
        16   2.7937372            968   298            329            341            0              4.1920075e-13
        17   2.8672338            990   305            335            350            0              4.2848211e-13
        18   2.9344414           1017   312            340            365            0              4.3736873e-13
        19   3.0278659           1035   319            342            374            0              4.4584633e-13
        20   3.135276            1051   319            347            385            0              4.5404693e-13
        21   3.2379624           1072   321            350            401            0              4.6187124e-13
        22   3.3196389           1095   327            355            413            0              4.6925165e-13
        23   3.3824332           1119   332            359            428            0              4.762373e-13 
        24   3.4518219           1135   334            363            438            0              4.8280199e-13
        25   3.5249378           1155   336            369            450            0              4.8902765e-13
        26   3.5916693           1177   342            370            465            0              4.9497963e-13
        27   3.6697812           1191   348            373            470            0              5.0073058e-13
        28   3.7589148           1206   353            375            478            0              5.0639109e-13
        29   3.8257387           1217   356            375            486            0              5.1176164e-13
        30   12.243044           1243   366            382            495            0              5.1683267e-13
        31   12.29675            1256   368            384            504            0              5.2146579e-13
        32   12.348074           1271   369            385            517            0              5.2586639e-13
        33   12.393058           1281   370            387            524            0              5.3002479e-13
        34   12.436082           1296   372            387            537            0              5.3395948e-13
        35   12.474191           1308   373            390            545            0              5.3767901e-13
        36   12.514638           1314   374            391            549            0              5.4122333e-13
        37   12.551032           1333   380            393            560            0              5.4458838e-13
        38   12.601964           1344   383            397            564            0              5.4772595e-13
        39   12.650791           1353   384            398            571            0              5.508009e-13 
        40   12.712075           1368   385            401            582            0              5.537316e-13 
        41   12.746541           1378   387            403            588            0              5.5651297e-13
        42   12.782049           1392   389            404            599            0              5.5912762e-13
        43   12.81941            1402   390            404            608            0              5.6158314e-13
        44   12.857494           1411   392            404            615            0              5.6394672e-13
        45   12.898019           1430   394            404            632            0              5.6619465e-13
        46   12.934999           1444   395            405            644            0              5.6839118e-13
        47   12.973583           1447   396            405            646            0              5.7046356e-13
        48   13.012521           1452   397            406            649            0              5.7245105e-13
        49   13.051451           1461   398            407            656            0              5.7434846e-13
        50   13.122307           1470   400            409            661            0              5.7616627e-13
        51   13.165869           1473   400            409            664            0              5.78e-13     
        52   13.206748           1477   401            410            666            0              5.7978056e-13
        53   13.248934           1486   403            412            671            0              5.8151874e-13
        54   13.290868           1495   406            412            677            0              5.8321645e-13
        55   13.3332             1501   407            413            680            1              5.8487749e-13
        56   13.36475            1511   407            413            689            2              5.8649677e-13
        57   13.399478           1514   407            413            691            3              5.880128e-13 
        58   13.438756           1520   408            413            696            3              5.8947147e-13
        59   13.480981           1528   410            413            701            4              5.9089649e-13
        60   13.54924            1538   413            414            704            7              5.9230711e-13
        61   13.593572           1543   414            414            705            10             5.93718e-13  
        62   13.636895           1547   414            415            702            16             5.9512012e-13
        63   13.679547           1555   416            415            706            18             5.9650345e-13
        64   13.726305           1562   416            416            708            22             5.9787232e-13
        65   13.768848           1567   417            416            704            30             5.9930714e-13
        66   13.810563           1572   418            416            701            37             6.0071852e-13
        67   13.851038           1576   419            416            699            42             6.0213525e-13
        68   13.879641           1585   421            417            695            52             6.0353861e-13
        69   13.915208           1593   421            417            700            55             6.048943e-13 
        70   13.973378           1598   421            418            698            61             6.0619248e-13
        71   14.010028           1606   422            418            701            65             6.0748191e-13
        72   14.052005           1611   422            418            692            79             6.0876653e-13
        73   14.09096            1615   423            418            690            84             6.1005565e-13
        74   14.129573           1620   424            418            688            90             6.1132356e-13
        75   14.16781            1626   424            420            680            102            6.1258507e-13
        76   14.205716           1633   424            421            679            109            6.1384009e-13
        77   14.243085           1641   424            421            685            111            6.1509156e-13
        78   14.290676           1650   424            423            688            115            6.1632016e-13
        79   14.328527           1659   426            423            690            120            6.1758502e-13
        80   14.380272           1665   426            423            692            124            6.1884743e-13
        81   14.414854           1669   426            423            689            131            6.2004346e-13
        82   14.442131           1674   427            423            685            139            6.2122959e-13
        83   14.473495           1677   427            424            684            142            6.2238186e-13
        84   14.503747           1679   427            424            682            146            6.2350064e-13
        85   14.53275            1684   428            424            681            151            6.2458719e-13
        86   14.566827           1691   430            424            684            153            6.2564095e-13
        87   14.60138            1698   430            424            684            160            6.2668446e-13
        88   14.630758           1706   430            424            690            162            6.2771487e-13
        89   14.663969           1712   430            425            694            163            6.2870823e-13
        90   14.716783           1718   430            425            696            167            6.2966789e-13
        91   14.744034           1723   431            425            698            169            6.3061183e-13
        92   14.775387           1730   433            426            698            173            6.315422e-13 
        93   14.807295           1733   434            426            697            176            6.3245846e-13
        94   14.83357            1739   434            426            700            179            6.3336451e-13
        95   14.864691           1742   435            426            699            182            6.3421014e-13
        96   14.900794           1746   435            426            702            183            6.3505037e-13
        97   14.925889           1751   435            426            706            184            6.3589684e-13
        98   14.98029            1758   436            427            711            184            6.3671034e-13
        99   15.035866           1764   436            427            716            185            6.3764031e-13
       100   15.087719           1770   437            427            718            188            6.3858484e-13
       101   15.135566           1775   437            427            720            191            6.3945945e-13
       102   15.193593           1780   437            428            722            193            6.4039845e-13
       103   15.235504           1785   437            428            726            194            6.4139899e-13
       104   15.302965           1787   437            429            726            195            6.4238675e-13
       105   15.359527           1792   438            429            730            195            6.4347296e-13
       106   15.436504           1795   438            429            733            195            6.4457599e-13
       107   15.519968           1800   438            429            738            195            6.4580464e-13
       108   15.609904           1805   438            429            740            198            6.471703e-13 
       109   15.704138           1814   438            429            748            199            6.4875211e-13
       110   16.221849           1820   438            429            754            199            6.505348e-13 
       111   16.354087           1825   438            429            758            200            6.5228589e-13
       112   16.473932           1837   439            429            767            202            6.5424032e-13
       113   16.574553           1844   439            429            771            205            6.5637945e-13
       114   16.685044           1851   439            429            775            208            6.5861629e-13
       115   16.798396           1866   439            429            787            211            6.6107556e-13
       116   16.904872           1874   439            429            793            213            6.6365842e-13
       117   17.007984           1888   439            429            807            213            6.6642658e-13
       118   17.112306           1899   439            429            815            216            6.6930406e-13
       119   17.212647           1913   439            429            827            218            6.7240456e-13
       120   17.337494           1921   439            429            834            219            6.755744e-13 
       121   17.422319           1935   439            429            847            220            6.7875694e-13
       122   17.514284           1947   439            429            859            220            6.8194052e-13
       123   17.575833           1959   439            429            870            221            6.8521054e-13
       124   17.635108           1974   439            429            882            224            6.8822161e-13
       125   17.693632           1984   439            429            890            226            6.9117766e-13
       126   17.750648           1995   439            429            899            228            6.9404222e-13
       127   17.799245           2008   439            429            912            228            6.9679966e-13
       128   17.891831           2023   439            429            927            228            6.9943732e-13
       129   17.938116           2036   439            429            939            229            7.0220596e-13
       130   18.069784           2044   439            429            946            230            7.0477142e-13
       131   18.180978           2057   439            429            955            234            7.0765823e-13
       132   18.31409            2064   439            429            961            235            7.1079119e-13
       133   18.449014           2080   439            429            975            237            7.1416815e-13
       134   18.588932           2094   439            429            988            238            7.1778433e-13
       135   18.789562           2110   439            429            1004           238            7.2164765e-13
       136   18.995253           2125   439            429            1019           238            7.2633196e-13
       137   19.175028           2146   439            429            1037           241            7.3156481e-13
       138   19.375516           2165   439            429            1052           245            7.3713081e-13
       139   19.590942           2192   439            429            1078           246            7.4329582e-13
       140   19.79256            2213   439            429            1098           247            7.5000852e-13
       141   19.969465           2238   439            429            1119           251            7.5685533e-13
       142   20.132686           2263   439            429            1143           252            7.638341e-13 
       143   20.285109           2289   439            429            1169           252            7.7086695e-13
       144   20.406305           2319   439            429            1197           254            7.779122e-13 
       145   20.552957           2339   439            429            1217           254            7.8476975e-13
       146   20.706136           2366   439            429            1241           257            7.9173942e-13
       147   20.804715           2394   439            429            1269           257            7.9866803e-13
       148   20.996596           2423   439            429            1298           257            8.053675e-13 
       149   21.163436           2447   439            429            1320           259            8.1246128e-13
       150   21.402336           2478   439            429            1349           261            8.1968686e-13
       151   21.625189           2505   439            429            1374           263            8.2721063e-13
       152   21.902579           2529   439            429            1397           264            8.3502443e-13
       153   22.193326           2572   439            429            1439           265            8.4387375e-13
       154   22.468145           2610   439            429            1477           265            8.5339701e-13
       155   22.744968           2641   439            429            1505           268            8.6350969e-13
       156   22.978758           2681   439            429            1544           269            8.7408324e-13
       157   23.176589           2721   439            429            1582           271            8.8483325e-13
       158   23.395171           2757   439            429            1615           274            8.9538303e-13
       159   23.586602           2798   439            430            1652           277            9.059652e-13 
       160   23.809808           2839   439            430            1691           279            9.1648027e-13
       161   23.990736           2883   439            430            1735           279            9.2715608e-13
       162   24.390233           2928   439            430            1777           282            9.3764439e-13
       163   24.645959           2970   439            430            1816           285            9.4813908e-13
       164   24.909302           3004   439            430            1844           291            9.5920384e-13
       165   25.198467           3063   439            430            1895           299            9.706183e-13 
       166   25.547952           3105   439            430            1932           304            9.8272074e-13
       167   25.881056           3143   439            428            1967           309            9.9570471e-13
       168   26.257986           3209   439            428            2030           312            1.009476e-12 
       169   26.624572           3269   439            428            2087           315            1.0245461e-12
       170   26.9644             3330   439            426            2143           322            1.0397783e-12
       171   27.267052           3380   439            424            2183           334            1.0555016e-12
       172   27.532579           3443   439            424            2241           339            1.0711483e-12
       173   27.818431           3521   439            423            2311           348            1.086726e-12 
       174   28.12144            3577   439            423            2360           355            1.1022917e-12
       175   28.451812           3646   439            423            2418           366            1.1182231e-12
       176   28.819032           3701   439            423            2464           375            1.1344126e-12
       177   29.195288           3783   439            423            2537           384            1.1511542e-12
       178   29.588551           3844   437            423            2593           391            1.16837e-12  
       179   29.97199            3927   437            422            2668           400            1.1872978e-12
       180   30.377191           4013   437            422            2751           403            1.206849e-12 
       181   30.769771           4087   437            422            2821           407            1.2270344e-12
       182   31.1548             4176   437            422            2909           408            1.2480535e-12
       183   31.545052           4270   437            422            2997           414            1.2691903e-12
       184   31.89956            4347   437            422            3070           418            1.2902432e-12
       185   32.250172           4435   436            422            3154           423            1.3111324e-12
       186   32.587614           4530   435            422            3240           433            1.3318598e-12
       187   32.978194           4628   434            422            3330           442            1.3521874e-12
       188   33.39491            4704   433            421            3400           450            1.3731211e-12
       189   33.796471           4800   431            421            3495           453            1.3938617e-12
       190   34.332327           4901   431            421            3589           460            1.4150829e-12
       191   34.835571           5012   430            421            3692           469            1.4369852e-12
       192   35.244216           5114   430            421            3790           473            1.4598391e-12
       193   35.655392           5204   430            421            3874           479            1.4834762e-12
       194   36.062043           5308   429            421            3976           482            1.5073557e-12
       195   36.45896            5401   427            421            4060           493            1.531314e-12 
       196   36.846181           5508   426            421            4156           505            1.5550383e-12
       197   37.210393           5607   426            421            4239           521            1.5781994e-12
       198   37.596294           5704   426            421            4325           532            1.6010874e-12
       199   38.006003           5794   425            421            4406           542            1.62338e-12  
       200   38.471412           5907   425            421            4512           549            1.6463389e-12
       201   38.886884           6005   423            421            4598           563            1.6693806e-12
       202   39.324161           6117   422            421            4704           570            1.6932325e-12
       203   39.790567           6227   421            421            4803           582            1.7183665e-12
       204   40.225525           6338   421            421            4898           598            1.7440764e-12
       205   40.676656           6455   421            421            5001           612            1.7706723e-12
       206   41.130629           6558   421            421            5090           626            1.7979279e-12
       207   41.577801           6673   421            421            5189           642            1.8254327e-12
       208   42.007096           6795   420            421            5309           645            1.8527628e-12
       209   42.462496           6913   420            421            5420           652            1.8796198e-12
       210   42.950207           7029   418            421            5524           666            1.9061661e-12
       211   43.407901           7154   417            421            5641           675            1.932615e-12 
       212   43.899282           7281   417            421            5749           694            1.9608031e-12
       213   44.371426           7411   413            421            5860           717            1.9898625e-12
       214   44.902385           7536   413            421            5953           749            2.0194219e-12
       215   45.400375           7679   413            421            6084           761            2.0507579e-12
       216   45.88037            7819   413            421            6200           785            2.0841679e-12
       217   46.369186           7955   412            420            6308           815            2.1181478e-12
       218   46.8832             8117   412            420            6439           846            2.1530688e-12
       219   47.403031           8270   411            420            6566           873            2.1885982e-12
       220   47.958031           8416   410            420            6675           911            2.2239639e-12
       221   48.476825           8589   409            420            6809           951            2.2592726e-12
       222   49.039439           8739   409            419            6936           975            2.2949617e-12
       223   49.620357           8911   408            419            7073           1011           2.3317326e-12
       224   50.183456           9061   408            419            7181           1053           2.3709665e-12
       225   50.726126           9258   408            418            7331           1101           2.4106568e-12
       226   51.296352           9427   406            418            7444           1159           2.4525152e-12
       227   51.860269           9627   405            417            7594           1211           2.4965141e-12
       228   52.434623           9804   405            416            7726           1257           2.5413867e-12
       229   53.054661          10006   405            416            7869           1316           2.5874822e-12
       230   53.683355          10216   405            416            8035           1360           2.6343123e-12
       231   54.306947          10426   404            416            8188           1418           2.6813939e-12
       232   55.013496          10629   404            416            8332           1477           2.7294052e-12
       233   55.637467          10863   404            416            8502           1541           2.7793869e-12
       234   56.278837          11085   404            416            8657           1608           2.8303991e-12
       235   56.964936          11325   403            415            8844           1663           2.8856762e-12
       236   57.66571           11569   403            414            9041           1711           2.944076e-12 
       237   58.382921          11804   402            414            9217           1771           3.0055976e-12
       238   59.179825          12078   402            413            9438           1825           3.0702712e-12
       239   59.920617          12348   402            413            9653           1880           3.1382193e-12
       240   60.819749          12647   402            413            9890           1942           3.2084711e-12
       241   61.755218          12904   401            413            10074          2016           3.2810541e-12
       242   62.737289          13235   401            413            10333          2088           3.3566671e-12
       243   63.777457          13532   401            412            10569          2150           3.4353381e-12
       244   64.86602           13874   400            412            10846          2216           3.5200184e-12
       245   65.949745          14226   400            412            11138          2276           3.6125039e-12
       246   67.103508          14570   398            412            11437          2323           3.7133473e-12
       247   68.365186          14964   398            411            11769          2386           3.8239965e-12
       248   69.950479          15381   397            411            12143          2430           3.9472829e-12
       249   71.704881          15811   396            411            12512          2492           4.0815006e-12
       250   73.583671          16306   394            411            12949          2552           4.2227582e-12
       251   75.60779           16776   393            411            13361          2611           4.3666516e-12
       252   77.8901            17254   393            410            13786          2665           4.5073509e-12
       253   80.238429          17772   392            409            14242          2729           4.6503693e-12
       254   82.628487          18248   392            409            14655          2792           4.7865824e-12
       255   85.106126          18766   392            408            15099          2867           4.9312033e-12
       256   87.62202           19257   392            408            15526          2931           5.0824941e-12
       257   90.175906          19795   392            406            15997          3000           5.2306032e-12
       258   92.782744          20330   391            406            16464          3069           5.37682e-12  
       259   95.444641          20863   391            404            16943          3125           5.5267149e-12
       260   98.19756           21393   391            402            17407          3193           5.6781644e-12
       261   100.9365           21977   391            401            17927          3258           5.8366643e-12
       262   103.68069          22553   390            400            18420          3343           5.9968817e-12
       263   106.4254           23189   389            399            18988          3413           6.1664982e-12
       264   109.20285          23839   386            399            19552          3502           6.3551583e-12
       265   111.99422          24512   385            397            20132          3598           6.5353411e-12
       266   114.74553          25135   383            395            20677          3680           6.7058639e-12
       267   117.54157          25760   382            393            21208          3777           6.865488e-12 
       268   120.31062          26499   381            389            21861          3868           7.0553431e-12
       269   123.06442          27174   379            385            22443          3967           7.2506264e-12
       270   125.92018          27894   376            383            23067          4068           7.4393039e-12
       271   128.6771           28679   376            380            23710          4213           7.6479338e-12
       272   131.44159          29419   373            374            24321          4351           7.8429522e-12
       273   134.18164          30198   369            373            24952          4504           8.0539012e-12
       274   136.94069          30967   364            370            25584          4649           8.2526319e-12
       275   139.67785          31744   361            367            26200          4816           8.4600403e-12
       276   142.41144          32535   351            363            26848          4973           8.6658214e-12
       277   145.18165          33356   344            356            27506          5150           8.8729664e-12
       278   147.94128          34153   336            350            28095          5372           9.0787472e-12
       279   150.71455          34977   331            343            28681          5622           9.2908831e-12
       280   153.61529          35758   324            333            29203          5898           9.4819509e-12
       281   156.38828          36555   316            325            29741          6173           9.6685167e-12
       282   159.19067          37386   305            312            30303          6466           9.8681878e-12
       283   161.99148          38139   297            305            30789          6748           1.0044128e-11
       284   164.83977          38949   280            294            31298          7077           1.0208238e-11
       285   167.69673          39643   262            282            31729          7370           1.0359087e-11
       286   170.54617          40409   252            266            32226          7665           1.0517808e-11
       287   173.39281          41077   237            248            32567          8025           1.0656524e-11
       288   176.2425           41777   223            232            32954          8368           1.0772455e-11
       289   179.13298          42488   212            217            33349          8710           1.0903918e-11
       290   182.14811          43099   204            194            33635          9066           1.1023625e-11
       291   185.075            43778   183            173            34064          9358           1.1149078e-11
       292   188.03456          44389   157            159            34417          9656           1.1216813e-11
       293   191.02303          45094   135            146            34894          9919           1.1315036e-11
       294   194.00556          45648   115            130            35234          10169          1.1388126e-11
       295   197.0252           46180   96             111            35554          10419          1.14407e-11  
       296   200.05533          46763   84             97             35960          10622          1.1512264e-11
       297   203.13108          47317   69             81             36361          10806          1.1577949e-11
       298   206.2173           47883   61             65             36772          10985          1.161981e-11 
       299   209.35725          48415   51             52             37141          11171          1.1660494e-11
       300   212.6205           48926   38             45             37477          11366          1.1695897e-11
       301   215.77287          49423   25             34             37785          11579          1.1743414e-11
       302   218.93349          49859   24             22             38022          11791          1.1746026e-11
       303   222.14339          50380   17             14             38324          12025          1.1762491e-11
       304   225.35489          50887   15             9              38594          12269          1.1777246e-11
       305   228.63129          51282   13             7              38724          12538          1.1794663e-11
       306   231.91907          51654   10             6              38812          12826          1.1763976e-11
       307   235.20211          52078   8              5              38913          13152          1.1781932e-11
       308   238.55621          52535   6              5              39039          13485          1.1775021e-11
       309   241.89251          53087   6              5              39267          13809          1.1832336e-11
       310   245.42621          53447   4              4              39296          14143          1.1808098e-11
       311   248.88585          53756   2              2              39243          14509          1.1782248e-11
       312   252.35608          54182   2              1              39349          14830          1.1775763e-11
       313   255.88206          54594   2              0              39418          15174          1.1775574e-11
       314   259.46403          54974   2              0              39437          15535          1.1762322e-11
       315   263.05398          55401   2              0              39543          15856          1.1766264e-11
       316   266.65007          55812   2              0              39634          16176          1.1779142e-11
       317   270.30018          56130   2              0              39667          16461          1.1760619e-11
       318   273.94486          56553   2              0              39784          16767          1.1770972e-11
       319   277.61843          56945   2              0              39907          17036          1.1758807e-11
       320   281.46376          57298   2              0              39993          17303          1.1761138e-11
Loop time of 281.464 on 16 procs for 320 steps with 57298 atoms

97.9% CPU use with 16 MPI tasks x 1 OpenMP threads

MPI task timing breakdown:
Section |  min time  |  avg time  |  max time  |%varavg| %total
---------------------------------------------------------------
Pair    | 16.654     | 41.127     | 89.761     | 335.7 | 14.61
Neigh   | 2.4217     | 10.009     | 34.271     | 307.2 |  3.56
Comm    | 40.021     | 48.297     | 58.885     | 101.9 | 17.16
Output  | 10.394     | 10.394     | 10.394     |   0.0 |  3.69
Modify  | 82.565     | 156.96     | 195.15     | 266.8 | 55.76
Other   |            | 14.68      |            |       |  5.22

Nlocal:        3581.12 ave        8260 max        2021 min
Histogram: 7 4 1 2 0 0 0 0 0 2
Nghost:        2788.25 ave        5127 max        1661 min
Histogram: 4 4 2 2 0 0 1 1 0 2
Neighs:        21324.1 ave       32563 max       15002 min
Histogram: 2 4 2 3 1 2 0 0 0 2

Total # of neighbors = 341185
Ave neighs/atom = 5.9545708
Neighbor list builds = 2698
Dangerous builds = 250

Total wall time: 0:04:42
