LAMMPS (23 Jun 2022 - Update 4)
  using 1 OpenMP thread(s) per MPI task
package omp 0
using multi-threaded neighbor list subroutines
#-----------------------------------------------------------------------------#
#                NUFEB Simulation: Heterotrophic Biofilm Growth               #
#-----------------------------------------------------------------------------#


#-----------------------------System Settings---------------------------------#

units si                                    # using si units (m, s, kg)
atom_style      coccus                      # using nufeb coccus atom style
atom_modify     map array sort 10 0         # map array - find atoms using indices
		                            # sort every 10

boundary        pp pp ff                    # periodic boundaries in x and y
                                            # fixed boundary in z

newton          off                         # forces between local and ghost
                                            # atoms are computed in each
					     # processor without communication

processors      * * 1                       # processor grid

comm_modify     vel yes                     # communicate velocities for ghost atoms

read_data       atom_ch.in	             # read atom.in file which defines domain size
Reading data file ...
  orthogonal box = (0 0 0) to (6e-05 6e-05 6e-05)
  4 by 4 by 1 MPI processor grid
  reading atoms ...
  150 atoms
  read_data CPU = 0.020 seconds
                                            # and initial atoms


#--------------------Microbes and Functional Groups-------------------------#

group           CROSS1   type 1               # assign type 1,2 atoms to CROSS group
50 atoms in group CROSS1
group           CROSS2   type 2
50 atoms in group CROSS2
group		CHEATER  type 3
50 atoms in group CHEATER
group           dead     type 4
0 atoms in group dead

neighbor        5e-7 bin                   # setting neighbour skin distance and style

neigh_modify    check yes                  # rebuild neighbour list if any atom
                                           # had moved more than half the skin distance


#--------------------------Mesh Grid and Substrates--------------------------#

# defining grid sytle, substrate names, and grid size
grid_style      nufeb/chemostat 3 sub metab1 metab2 5e-6

# set diffusion boundary conditions and initial concentrations (liquid:kg/m3)
grid_modify     set sub      pp pp nd  1.8e-4
No /omp style for force computation currently active
grid_modify     set metab1   pp pp nd  1e-4
No /omp style for force computation currently active
grid_modify     set metab2   pp pp nd  1e-4
No /omp style for force computation currently active


#--------------------------Biological Processes-------------------------------#

# heterotrophs growth
fix growth_cross1 CROSS1 nufeb/growth/cross1 sub 3.5e-5 metab2 4e-3 metab1 growth 0.009 yield 0.6 decay 2.6e-6 metab1_exp 20

fix growth_cross2 CROSS2 nufeb/growth/cross2 sub 3.5e-5 metab1 4e-3 metab2 growth 0.009 yield 0.6 decay 2.6e-6 metab2_exp 20

fix growth_cheater CHEATER nufeb/growth/cheater sub 3.5e-5 metab1 1e-3 metab2 1e-3 growth 0.009 yield 0.6 decay 2.6e-6
# heterotrophs division, division diameter: 1.36e-6
fix div1 CROSS1 nufeb/division/coccus 1.36e-6 392
fix div2 CROSS2 nufeb/division/coccus 1.36e-6 1262
fix div3 CHEATER nufeb/division/coccus 1.36e-6 2710

fix death1 CROSS1 nufeb/death/diameter dead 5.43e-7
fix death2 CROSS2 nufeb/death/diameter dead 5.43e-7
fix death3 CHEATER nufeb/death/diameter dead 5.43e-7

#---------------------------Physical Processes--------------------------------#

pair_style  gran/hooke/history 1e-4 NULL 1e-5 NULL 0.0 0    # pairwise interaction
pair_coeff  * *                                             # between atoms

# pairwise interaction between z-wall and atoms
fix wall all wall/gran hooke/history 1e-3 NULL 1e-4 NULL 0 0 zplane 0.0 1e-04

fix vis all viscous 1e-5                                    # viscous damping force

fix grav all gravity 9.81 vector 0.0 0.0 -1.0

fix nve all nve/limit 1e-7                                  # NVE integration with
                                                            # maximum distance limit


#---------------------------Post-Physical Processes---------------------------#

fix coeff_sub all nufeb/diffusion_coeff sub ratio 0.8       # defining diffusion coeff in the biofilm
fix coeff_metab1 all nufeb/diffusion_coeff metab1 ratio 0.8    # region is 80% of the value in liquid
fix coeff_metab2 all nufeb/diffusion_coeff metab2 ratio 0.8

#---------------------------Chemical Processes---------------------------------#

fix diff_sub all nufeb/diffusion_reaction sub 1e-9        # diffusion reaction for updating
fix diff_metab1 all nufeb/diffusion_reaction metab1 4e-9     # distribusion of substrate concentration
fix diff_metab2 all nufeb/diffusion_reaction metab2 4e-9

#--------------------------Computations and Outputs----------------------------#

variable mass equal "mass(all)"                             # total mass
variable ncross1 equal "count(CROSS1)"                      # total # of CROSS1
variable ncross2 equal "count(CROSS2)"                      # total # of CROSS2
variable ncheater equal "count(CHEATER)"
variable ndead equal "count(dead)"

shell mkdir vtk_NEPS_ch                                            # dump vtk files to /vtk folder
dump du1 all vtk 10 vtk_NEPS_ch/dump*.vtu id type diameter         # require build NUFEB with vtk option
dump du2 all grid/vtk 10 vtk_NEPS_ch/dump_%_*.vti con rea den gro

#dump du3 all movie 10 movie.avi type diameter view 80 60    # dump video
#dump_modify du3 acolor 1 blue acolor 2 lightgrey framerate 10


                                                            # dump hdf5 files to /hdf5 folder
#shell mkdir hdf5                                           # require build NUFEB with hdf5 option
#dump du3 all nufeb/hdf5 10 dump.h5 id type x y z vx vy vz fx fy fz radius conc reac

thermo_style custom step cpu atoms v_ncross1 v_ncross2 v_ncheater v_ndead v_mass     # screen and log outputs
thermo 1
thermo_modify   lost ignore

#-----------------------------------Run----------------------------------------#

# issue run command, define timesteps for physical (pairdt) and chemical (diffdt) processes
run_style nufeb diffdt 1e-4 difftol 1e-6 pairdt 1e-2 pairtol 1 pairmax 1000 diffmax 5000

timestep 12000                                               # define biological timesteps (1000s)

run 320                                                    # growing biofilm for 900x1000s
Generated 0 of 6 mixed pair_coeff terms from geometric mixing rule
Last active /omp style is pair_style gran/hooke/history/omp
Neighbor list info ...
  update every 1 steps, delay 10 steps, check yes
  max neighbors/atom: 2000, page size: 100000
  master list distance cutoff = 2.49e-06
  ghost atom cutoff = 2.49e-06
  binsize = 1.245e-06, bins = 49 49 49
  1 neighbor lists, perpetual/occasional/extra = 1 0 0
  (1) pair gran/hooke/history/omp, perpetual
      attributes: half, newton off, size, history, omp
      pair build: half/size/bin/newtoff/omp
      stencil: full/bin/3d
      bin: standard
Per MPI rank memory allocation (min/avg/max) = 11.02 | 11.02 | 11.02 Mbytes
   Step          CPU          Atoms      v_ncross1      v_ncross2      v_ncheater      v_ndead         v_mass    
         0   0                    150   50             50             50             0              1.3295396e-13
         1   0.37569788           273   96             91             86             0              1.9616795e-13
         2   0.73636085           438   149            151            138            0              2.2416328e-13
         3   1.0362706            534   169            193            172            0              2.4538036e-13
         4   1.3237651            595   186            216            193            0              2.6403105e-13
         5   1.5063223            635   197            229            209            0              2.815559e-13 
         6   1.6664114            665   208            240            217            0              2.9807085e-13
         7   1.8003755            711   223            256            232            0              3.139011e-13 
         8   1.9466735            740   232            259            249            0              3.2902269e-13
         9   2.0794963            778   239            274            265            0              3.4355587e-13
        10   2.2322238            806   247            281            278            0              3.5732731e-13
        11   2.3403036            837   256            286            295            0              3.7051919e-13
        12   2.4358053            871   267            299            305            0              3.8308328e-13
        13   2.5360343            909   273            308            328            0              3.9521815e-13
        14   2.6284132            932   282            312            338            0              4.0677151e-13
        15   2.7099085            960   288            325            347            0              4.1782637e-13
        16   2.7840713            993   294            333            366            0              4.2834593e-13
        17   2.8561097           1016   298            336            382            0              4.383806e-13 
        18   2.942139            1038   304            339            395            0              4.4785432e-13
        19   3.0371423           1068   310            344            414            0              4.5697601e-13
        20   3.1473219           1090   316            348            426            0              4.6582596e-13
        21   3.2325699           1117   316            353            448            0              4.7431646e-13
        22   3.3180832           1136   319            356            461            0              4.8259495e-13
        23   3.4252503           1160   322            361            477            0              4.9055641e-13
        24   3.530599            1172   323            364            485            0              4.984497e-13 
        25   3.6085652           1193   326            367            500            0              5.0625018e-13
        26   3.7183259           1212   330            370            512            0              5.1378937e-13
        27   3.8383506           1238   331            374            533            0              5.2130984e-13
        28   3.9589941           1257   331            377            549            0              5.288527e-13 
        29   4.0770726           1285   334            382            569            0              5.3635869e-13
        30   4.2398999           1312   339            386            587            0              5.4385427e-13
        31   4.379396            1333   340            389            604            0              5.5147023e-13
        32   4.5123241           1358   345            390            623            0              5.5912547e-13
        33   4.6201307           1377   347            391            639            0              5.6673852e-13
        34   4.7303602           1404   352            393            659            0              5.7429811e-13
        35   4.8503936           1424   352            396            676            0              5.817834e-13 
        36   4.9506856           1453   354            397            702            0              5.891877e-13 
        37   5.0578862           1471   354            397            720            0              5.9645776e-13
        38   5.1531025           1495   357            399            739            0              6.0362335e-13
        39   5.2424738           1519   357            402            760            0              6.1059993e-13
        40   5.3416317           1545   357            403            785            0              6.1740201e-13
        41   5.4208002           1563   357            404            802            0              6.239426e-13 
        42   5.4865342           1577   358            404            815            0              6.3024223e-13
        43   5.5480068           1603   359            404            840            0              6.3629821e-13
        44   5.6116249           1621   359            405            857            0              6.4208167e-13
        45   5.7107638           1640   360            405            875            0              6.4766395e-13
        46   5.8261875           1659   361            407            891            0              6.5328308e-13
        47   5.9432473           1674   363            409            902            0              6.5887447e-13
        48   6.0754231           1697   365            411            921            0              6.6436811e-13
        49   6.2552019           1713   365            411            937            0              6.6999329e-13
        50   6.4013066           1731   366            413            952            0              6.7604938e-13
        51   6.5806853           1746   367            413            965            1              6.8202471e-13
        52   6.7867311           1766   368            413            984            1              6.8836301e-13
        53   6.9927809           1792   369            414            1007           2              6.9510234e-13
        54   7.178141            1809   369            414            1023           3              7.0217334e-13
        55   7.3551881           1837   370            415            1047           5              7.0938917e-13
        56   7.5167071           1861   371            417            1064           9              7.1665901e-13
        57   7.6465305           1885   371            417            1085           12             7.2389548e-13
        58   7.7811187           1912   372            417            1109           14             7.3092264e-13
        59   7.8901567           1945   372            417            1138           18             7.3786285e-13
        60   27.633337           1967   373            417            1154           23             7.4453933e-13
        61   27.756152           1994   373            420            1171           30             7.5093544e-13
        62   27.89085            2025   374            420            1195           36             7.5734353e-13
        63   28.074274           2047   374            420            1210           43             7.6381036e-13
        64   28.233356           2073   374            423            1230           46             7.7049857e-13
        65   28.463106           2104   375            423            1255           51             7.7714754e-13
        66   28.769576           2125   375            423            1266           61             7.8447754e-13
        67   29.075745           2155   375            423            1288           69             7.9286749e-13
        68   29.319758           2193   377            423            1310           83             8.0220137e-13
        69   29.582602           2226   377            423            1337           89             8.1194863e-13
        70   29.856548           2262   377            423            1371           91             8.2198137e-13
        71   30.082542           2297   377            423            1398           99             8.3225311e-13
        72   30.285671           2336   377            423            1433           103            8.4250006e-13
        73   30.472541           2367   377            424            1458           108            8.5265154e-13
        74   30.643952           2419   377            424            1505           113            8.6255601e-13
        75   30.830148           2454   377            424            1534           119            8.7218763e-13
        76   31.028097           2489   377            424            1556           132            8.817707e-13 
        77   31.201894           2520   377            424            1578           141            8.9150235e-13
        78   31.487399           2571   377            424            1622           148            9.0090268e-13
        79   31.837388           2607   377            424            1652           154            9.1113851e-13
        80   32.222978           2649   376            424            1684           165            9.2240457e-13
        81   32.596533           2700   376            424            1730           170            9.3503455e-13
        82   32.974207           2752   377            425            1771           179            9.487788e-13 
        83   33.325432           2809   377            425            1818           189            9.6380728e-13
        84   33.673625           2865   377            426            1867           195            9.7943957e-13
        85   34.000954           2928   377            426            1925           200            9.9539524e-13
        86   34.283204           2994   377            426            1986           205            1.0115047e-12
        87   34.544965           3044   377            426            2029           212            1.0274706e-12
        88   34.80508            3118   376            426            2097           219            1.0431301e-12
        89   35.106349           3196   376            426            2168           226            1.058603e-12 
        90   35.407217           3267   375            426            2235           231            1.0742513e-12
        91   35.770779           3319   374            426            2281           238            1.0898514e-12
        92   36.100473           3391   372            426            2344           249            1.1061172e-12
        93   36.481768           3464   372            426            2413           253            1.1226325e-12
        94   36.869275           3537   372            426            2483           256            1.1400712e-12
        95   37.25405            3629   372            426            2566           265            1.1586227e-12
        96   37.634926           3699   372            426            2632           269            1.1779187e-12
        97   38.000934           3786   371            425            2718           272            1.1975286e-12
        98   38.353359           3872   371            425            2800           276            1.2170778e-12
        99   38.679736           3949   370            425            2872           282            1.2364767e-12
       100   38.998547           4029   370            425            2947           287            1.2554676e-12
       101   39.311047           4096   370            425            3013           288            1.2739301e-12
       102   39.606842           4197   370            425            3111           291            1.2918871e-12
       103   39.971016           4265   370            425            3174           296            1.3094718e-12
       104   40.342965           4340   370            425            3244           301            1.3272595e-12
       105   40.805931           4416   370            425            3317           304            1.3452098e-12
       106   41.208886           4500   370            425            3399           306            1.3641858e-12
       107   41.622245           4591   370            424            3487           310            1.3834299e-12
       108   42.051982           4664   370            424            3558           312            1.4036148e-12
       109   42.478444           4758   370            424            3650           314            1.4248168e-12
       110   42.937615           4849   370            424            3740           315            1.4464756e-12
       111   43.364707           4945   370            424            3833           318            1.4684536e-12
       112   43.791453           5047   370            424            3932           321            1.4905034e-12
       113   44.212763           5138   370            424            4021           323            1.512486e-12 
       114   44.639188           5227   370            424            4109           324            1.5344453e-12
       115   45.066928           5340   370            423            4216           331            1.556532e-12 
       116   45.498858           5431   370            423            4301           337            1.5784933e-12
       117   45.92873            5530   370            422            4395           343            1.600739e-12 
       118   46.368024           5636   370            422            4490           354            1.6230659e-12
       119   46.82594            5716   370            422            4565           359            1.6462074e-12
       120   47.308652           5835   370            422            4676           367            1.670085e-12 
       121   47.764697           5944   370            422            4776           376            1.6948955e-12
       122   48.315912           6044   370            422            4852           400            1.7204014e-12
       123   48.772423           6165   370            422            4958           415            1.7463949e-12
       124   49.227998           6275   370            421            5056           428            1.7728351e-12
       125   49.674805           6390   370            420            5146           454            1.7994265e-12
       126   50.142756           6512   369            420            5249           474            1.8262906e-12
       127   50.617047           6624   369            420            5329           506            1.8529027e-12
       128   51.089861           6765   369            420            5437           539            1.880186e-12 
       129   51.558804           6890   369            420            5541           560            1.9077841e-12
       130   52.091632           7019   369            420            5639           591            1.9362908e-12
       131   52.579969           7152   369            419            5726           638            1.9663417e-12
       132   53.108157           7273   369            419            5806           679            1.9972763e-12
       133   53.612253           7417   369            419            5909           720            2.0294033e-12
       134   54.137548           7561   369            418            6005           769            2.0632256e-12
       135   54.636415           7724   369            418            6116           821            2.0983603e-12
       136   55.141674           7893   369            418            6216           890            2.1345136e-12
       137   55.653427           8059   369            418            6340           932            2.1717548e-12
       138   56.158034           8231   369            418            6463           981            2.2092676e-12
       139   56.702041           8391   369            418            6575           1029           2.2466783e-12
       140   57.272629           8584   369            418            6731           1066           2.2847897e-12
       141   57.814029           8757   369            418            6853           1117           2.3235007e-12
       142   58.379782           8933   369            418            6987           1159           2.3619895e-12
       143   58.9365             9117   368            417            7125           1207           2.4013794e-12
       144   59.513694           9320   368            417            7277           1258           2.4421867e-12
       145   60.114379           9497   368            416            7395           1318           2.4840678e-12
       146   60.692186           9696   368            416            7542           1370           2.5276467e-12
       147   61.284203           9922   368            416            7714           1424           2.572612e-12 
       148   61.895981          10102   368            416            7848           1470           2.6188e-12   
       149   62.543171          10306   367            416            8009           1514           2.665694e-12 
       150   63.235476          10504   367            416            8168           1553           2.7138443e-12
       151   63.905969          10747   367            416            8360           1604           2.7620056e-12
       152   64.62436           10957   367            416            8529           1645           2.8114171e-12
       153   65.329356          11190   367            416            8729           1678           2.8613373e-12
       154   66.094858          11398   367            416            8880           1735           2.9136056e-12
       155   66.826497          11647   367            416            9085           1779           2.9680284e-12
       156   67.593325          11879   367            416            9266           1830           3.0262692e-12
       157   68.35793           12114   367            416            9442           1889           3.0877458e-12
       158   69.232755          12397   367            416            9671           1943           3.1528062e-12
       159   70.096534          12659   367            416            9881           1995           3.2201086e-12
       160   71.004578          12941   367            416            10119          2039           3.2908876e-12
       161   71.931738          13230   367            416            10342          2105           3.3651287e-12
       162   72.956761          13533   367            416            10600          2150           3.4429702e-12
       163   74.011821          13871   367            415            10889          2200           3.5263082e-12
       164   75.153258          14203   367            413            11180          2243           3.6157737e-12
       165   76.353247          14561   367            412            11495          2287           3.7122695e-12
       166   77.633878          14962   367            412            11848          2335           3.8181085e-12
       167   79.012646          15381   367            412            12209          2393           3.9337732e-12
       168   80.636806          15804   367            410            12585          2442           4.0595177e-12
       169   82.397039          16253   367            410            12983          2493           4.1895931e-12
       170   84.41745           16747   366            410            13424          2547           4.3235896e-12
       171   86.610209          17262   366            410            13881          2605           4.4596096e-12
       172   89.080483          17725   366            410            14283          2666           4.5952284e-12
       173   91.57414           18214   366            409            14734          2705           4.7298303e-12
       174   94.135329          18720   366            409            15187          2758           4.8639468e-12
       175   96.714488          19219   366            408            15636          2809           5.0009715e-12
       176   99.358856          19756   366            408            16126          2856           5.1498881e-12
       177   102.02046          20260   365            408            16579          2908           5.2938126e-12
       178   104.75181          20891   365            406            17127          2993           5.4554274e-12
       179   107.50177          21443   365            405            17598          3075           5.6107105e-12
       180   110.34544          21978   363            403            18052          3160           5.7509595e-12
       181   113.19252          22586   363            403            18555          3265           5.9104396e-12
       182   115.99753          23199   363            403            19072          3361           6.073145e-12 
       183   118.8484           23802   362            401            19559          3480           6.2303594e-12
       184   121.68445          24452   362            401            20103          3586           6.4097206e-12
       185   124.55226          25044   362            399            20564          3719           6.5698805e-12
       186   127.42199          25706   361            397            21091          3857           6.7533385e-12
       187   130.30349          26395   360            396            21639          4000           6.9267285e-12
       188   133.1853           27064   360            392            22143          4169           7.1035835e-12
       189   136.06657          27742   360            390            22656          4336           7.2908109e-12
       190   139.00407          28478   358            389            23223          4508           7.49238e-12  
       191   141.87541          29215   355            386            23771          4703           7.6955915e-12
       192   144.81175          29968   352            383            24320          4913           7.8808252e-12
       193   147.70888          30714   350            379            24867          5118           8.0807688e-12
       194   150.58438          31537   349            375            25501          5312           8.2883844e-12
       195   153.45103          32297   347            372            26073          5505           8.4940422e-12
       196   156.35388          33097   347            365            26658          5727           8.7052052e-12
       197   159.26056          33838   347            362            27221          5908           8.8961094e-12
       198   162.19586          34677   341            356            27860          6120           9.1034617e-12
       199   165.1538           35453   339            355            28417          6342           9.2913384e-12
       200   168.18694          36254   335            342            29015          6562           9.4993132e-12
       201   171.12522          37008   334            330            29547          6797           9.6753277e-12
       202   174.14015          37898   325            323            30218          7032           9.859879e-12 
       203   177.06939          38718   319            309            30813          7277           1.00684e-11  
       204   180.04376          39368   313            295            31240          7520           1.0212643e-11
       205   183.03312          40158   303            284            31817          7754           1.0387327e-11
       206   186.0474           40913   295            269            32366          7983           1.053501e-11 
       207   189.08229          41707   281            255            32944          8227           1.0684884e-11
       208   192.11683          42422   268            241            33404          8509           1.0814985e-11
       209   195.16207          43060   253            221            33808          8778           1.0958712e-11
       210   198.37166          43717   222            202            34220          9073           1.1057903e-11
       211   201.46724          44374   204            185            34622          9363           1.1154953e-11
       212   204.59578          45114   187            173            35109          9645           1.1267727e-11
       213   207.77066          45629   164            151            35365          9949           1.1321418e-11
       214   210.96341          46243   133            137            35733          10240          1.1405211e-11
       215   214.17569          46789   107            112            36003          10567          1.1472375e-11
       216   217.42353          47362   85             91             36329          10857          1.1525306e-11
       217   220.68166          47917   71             75             36630          11141          1.156821e-11 
       218   223.93675          48451   53             65             36883          11450          1.1610734e-11
       219   227.25204          48976   45             44             37147          11740          1.1655995e-11
       220   230.70412          49509   34             37             37397          12041          1.1700863e-11
       221   234.10038          50009   27             27             37609          12346          1.1738687e-11
       222   237.46914          50463   21             23             37770          12649          1.1762167e-11
       223   240.89165          50994   12             16             38032          12934          1.1785279e-11
       224   244.37957          51441   8              12             38218          13203          1.1798762e-11
       225   247.85281          51923   4              8              38419          13492          1.1816558e-11
       226   251.36353          52337   4              5              38558          13770          1.1817422e-11
       227   254.8899           52768   0              4              38716          14048          1.1828205e-11
       228   258.46712          53112   0              4              38793          14315          1.1799212e-11
       229   262.04402          53562   0              3              38937          14622          1.1791443e-11
       230   265.77421          53993   0              1              39094          14898          1.1795632e-11
       231   269.41467          54369   0              1              39194          15174          1.1798669e-11
       232   273.10629          54736   0              0              39301          15435          1.177609e-11 
       233   276.80481          55095   0              0              39400          15695          1.1783786e-11
       234   280.61209          55547   0              0              39574          15973          1.1779891e-11
       235   284.3701           55998   0              0              39712          16286          1.1790465e-11
       236   288.18628          56400   0              0              39825          16575          1.1782542e-11
       237   292.02159          56673   0              0              39763          16910          1.1763128e-11
       238   295.93293          57137   0              0              39910          17227          1.1767787e-11
       239   299.88984          57526   0              0              39965          17561          1.1777941e-11
       240   304.0077           57871   0              0              40017          17854          1.1755382e-11
       241   308.03528          58219   0              0              40090          18129          1.1737221e-11
       242   312.10596          58636   0              0              40196          18440          1.1754209e-11
       243   316.2428           59022   0              0              40258          18764          1.1762769e-11
       244   320.37811          59358   0              0              40254          19104          1.1743031e-11
       245   324.56721          59667   0              0              40274          19393          1.1734698e-11
       246   328.7745           60137   0              0              40439          19698          1.1748495e-11
       247   333.024            60453   0              0              40450          20003          1.1750075e-11
       248   337.3385           60773   0              0              40453          20320          1.1722777e-11
       249   341.69754          61153   0              0              40524          20629          1.1701618e-11
       250   346.28435          61449   0              0              40467          20982          1.1684469e-11
       251   350.71486          61779   0              0              40457          21322          1.1684501e-11
       252   355.27373          62108   0              0              40451          21657          1.1677468e-11
       253   359.81369          62495   0              0              40518          21977          1.1684171e-11
       254   364.36695          62849   0              0              40520          22329          1.1664154e-11
       255   368.98982          63206   0              0              40539          22667          1.1693622e-11
       256   373.70957          63578   0              0              40551          23027          1.1690703e-11
       257   378.4173           63916   0              0              40513          23403          1.1686219e-11
       258   383.13383          64179   0              0              40382          23797          1.1671314e-11
       259   387.90928          64517   0              0              40290          24227          1.1687553e-11
       260   392.96693          64939   0              0              40310          24629          1.1705678e-11
       261   397.79733          65266   0              0              40198          25068          1.1694061e-11
       262   402.68441          65585   0              0              40108          25477          1.1687879e-11
       263   407.60797          65956   0              0              40065          25891          1.1679375e-11
       264   412.55785          66180   0              0              39840          26340          1.1688203e-11
       265   417.55665          66552   0              0              39751          26801          1.1686115e-11
       266   422.59171          66867   0              0              39602          27265          1.1678896e-11
       267   427.64268          67215   0              0              39494          27721          1.1692742e-11
       268   432.80694          67518   0              0              39303          28215          1.1685675e-11
       269   437.84398          67866   0              0              39170          28696          1.1708882e-11
       270   443.21187          68093   0              0              38922          29171          1.1687726e-11
       271   448.40715          68484   0              0              38808          29676          1.1701425e-11
       272   453.6221           68785   0              0              38567          30218          1.170303e-11 
       273   458.97247          69120   0              0              38392          30728          1.1705675e-11
       274   464.2722           69340   0              0              38149          31191          1.1705578e-11
       275   469.50396          69759   0              0              38063          31696          1.1731235e-11
       276   475.03448          70016   0              0              37883          32133          1.1704176e-11
       277   480.3684           70418   0              0              37821          32597          1.175362e-11 
       278   485.79212          70703   0              0              37681          33022          1.1746997e-11
       279   491.25748          70981   0              0              37530          33451          1.1769006e-11
       280   497.01932          71272   0              0              37407          33865          1.1764087e-11
       281   502.71241          71620   0              0              37330          34290          1.17695e-11  
       282   508.39623          71938   0              0              37233          34705          1.1792094e-11
       283   514.11122          72267   0              0              37145          35122          1.1792622e-11
       284   519.80243          72616   0              0              37080          35536          1.183866e-11 
       285   525.63437          72892   0              0              36938          35954          1.1832238e-11
       286   531.47804          73199   0              0              36847          36352          1.182935e-11 
       287   537.31697          73543   0              0              36769          36774          1.1862787e-11
       288   543.26228          73792   0              0              36645          37147          1.1855007e-11
       289   549.2633           74094   0              0              36550          37544          1.1868842e-11
       290   555.4308           74378   0              0              36480          37898          1.1857972e-11
       291   561.42447          74752   0              0              36482          38270          1.189861e-11 
       292   567.54897          75081   0              0              36459          38622          1.1901664e-11
       293   573.66777          75287   0              0              36316          38971          1.1888651e-11
       294   579.79122          75559   0              0              36225          39334          1.1901484e-11
       295   586.01105          75854   0              0              36164          39690          1.1909556e-11
       296   592.19561          76173   0              0              36115          40058          1.1922673e-11
       297   598.52218          76525   0              0              36117          40408          1.1936056e-11
       298   604.92816          76797   0              0              36060          40737          1.1935078e-11
       299   611.27811          77115   0              0              36017          41098          1.1949845e-11
       300   617.85629          77397   0              0              35949          41448          1.1973781e-11
       301   624.27215          77702   0              0              35928          41774          1.1975618e-11
       302   630.8078           77981   0              0              35869          42112          1.1994167e-11
       303   637.36196          78275   0              0              35847          42428          1.1999376e-11
       304   643.96933          78617   0              0              35876          42741          1.2004907e-11
       305   650.61843          78917   0              0              35876          43041          1.2022276e-11
       306   657.37427          79263   0              0              35910          43353          1.2058432e-11
       307   664.09476          79545   0              0              35859          43686          1.2064739e-11
       308   670.86711          79815   0              0              35844          43971          1.2050385e-11
       309   677.72953          80113   0              0              35831          44282          1.2083469e-11
       310   684.77509          80471   0              0              35868          44603          1.2109956e-11
       311   691.77247          80634   0              0              35728          44906          1.2083314e-11
       312   698.72563          80919   0              0              35689          45230          1.2085779e-11
       313   705.6658           81301   0              0              35717          45584          1.2132657e-11
       314   712.70927          81669   0              0              35776          45893          1.2162162e-11
       315   719.85489          81897   0              0              35683          46214          1.2152271e-11
       316   727.04736          82094   0              0              35545          46549          1.2140408e-11
       317   734.17461          82422   0              0              35557          46865          1.2145224e-11
       318   741.35853          82759   0              0              35582          47177          1.2162297e-11
       319   748.58248          83063   0              0              35543          47520          1.2157943e-11
       320   755.93982          83364   0              0              35550          47814          1.2187856e-11
Loop time of 755.94 on 16 procs for 320 steps with 83364 atoms

96.1% CPU use with 16 MPI tasks x 1 OpenMP threads

MPI task timing breakdown:
Section |  min time  |  avg time  |  max time  |%varavg| %total
---------------------------------------------------------------
Pair    | 135.47     | 184.08     | 272.97     | 287.1 | 24.35
Neigh   | 21.736     | 40.462     | 100.14     | 373.2 |  5.35
Comm    | 91.881     | 127.8      | 178.43     | 240.0 | 16.91
Output  | 22.247     | 22.247     | 22.248     |   0.0 |  2.94
Modify  | 167.49     | 352.16     | 450.9      | 426.4 | 46.59
Other   |            | 29.19      |            |       |  3.86

Nlocal:        5210.25 ave       10228 max        3718 min
Histogram: 8 4 0 2 0 0 0 0 0 2
Nghost:        4092.25 ave        6564 max        2969 min
Histogram: 6 2 2 2 0 0 2 0 0 2
Neighs:        42534.6 ave       54982 max       34937 min
Histogram: 2 1 5 3 1 2 0 0 0 2

Total # of neighbors = 680553
Ave neighs/atom = 8.1636318
Neighbor list builds = 4916
Dangerous builds = 415

Total wall time: 0:13:26
