LAMMPS (23 Jun 2022 - Update 4)
  using 1 OpenMP thread(s) per MPI task
package omp 0
using multi-threaded neighbor list subroutines
#-----------------------------------------------------------------------------#
#                NUFEB Simulation: Heterotrophic Biofilm Growth               #
#-----------------------------------------------------------------------------#


#-----------------------------System Settings---------------------------------#

units si                                    # using si units (m, s, kg)
atom_style      coccus                      # using nufeb coccus atom style
atom_modify     map array sort 10 0         # map array - find atoms using indices
		                            # sort every 10

boundary        pp pp ff                    # periodic boundaries in x and y
                                            # fixed boundary in z

newton          off                         # forces between local and ghost
                                            # atoms are computed in each
					     # processor without communication

processors      * * 1                       # processor grid

comm_modify     vel yes                     # communicate velocities for ghost atoms

read_data       atom_ch.in	             # read atom.in file which defines domain size
Reading data file ...
  orthogonal box = (0 0 0) to (6e-05 6e-05 6e-05)
  4 by 4 by 1 MPI processor grid
  reading atoms ...
  150 atoms
  read_data CPU = 0.014 seconds
                                            # and initial atoms


#--------------------Microbes and Functional Groups-------------------------#

group           CROSS1   type 1               # assign type 1,2 atoms to CROSS group
50 atoms in group CROSS1
group           CROSS2   type 2
50 atoms in group CROSS2
group		CHEATER  type 3
50 atoms in group CHEATER
group           dead     type 4
0 atoms in group dead

neighbor        5e-7 bin                   # setting neighbour skin distance and style

neigh_modify    check yes                  # rebuild neighbour list if any atom
                                           # had moved more than half the skin distance


#--------------------------Mesh Grid and Substrates--------------------------#

# defining grid sytle, substrate names, and grid size
grid_style      nufeb/chemostat 3 sub metab1 metab2 5e-6

# set diffusion boundary conditions and initial concentrations (liquid:kg/m3)
grid_modify     set sub      pp pp nd  1.8e-4
No /omp style for force computation currently active
grid_modify     set metab1   pp pp nd  1e-4
No /omp style for force computation currently active
grid_modify     set metab2   pp pp nd  1e-4
No /omp style for force computation currently active


#--------------------------Biological Processes-------------------------------#

# heterotrophs growth
fix growth_cross1 CROSS1 nufeb/growth/cross1 sub 3.5e-5 metab2 4e-3 metab1 growth 0.009 yield 0.6 decay 2.6e-6 metab1_exp 20

fix growth_cross2 CROSS2 nufeb/growth/cross2 sub 3.5e-5 metab1 4e-3 metab2 growth 0.009 yield 0.6 decay 2.6e-6 metab2_exp 20

fix growth_cheater CHEATER nufeb/growth/cheater sub 3.5e-5 metab1 1e-3 metab2 1e-3 growth 0.009 yield 0.6 decay 2.6e-6
# heterotrophs division, division diameter: 1.36e-6
fix div1 CROSS1 nufeb/division/coccus 1.36e-6 1952
fix div2 CROSS2 nufeb/division/coccus 1.36e-6 7502
fix div3 CHEATER nufeb/division/coccus 1.36e-6 16750

fix death1 CROSS1 nufeb/death/diameter dead 5.43e-7
fix death2 CROSS2 nufeb/death/diameter dead 5.43e-7
fix death3 CHEATER nufeb/death/diameter dead 5.43e-7

#---------------------------Physical Processes--------------------------------#

pair_style  gran/hooke/history 1e-4 NULL 1e-5 NULL 0.0 0    # pairwise interaction
pair_coeff  * *                                             # between atoms

# pairwise interaction between z-wall and atoms
fix wall all wall/gran hooke/history 1e-3 NULL 1e-4 NULL 0 0 zplane 0.0 1e-04

fix vis all viscous 1e-5                                    # viscous damping force

fix grav all gravity 9.81 vector 0.0 0.0 -1.0

fix nve all nve/limit 1e-7                                  # NVE integration with
                                                            # maximum distance limit


#---------------------------Post-Physical Processes---------------------------#

fix coeff_sub all nufeb/diffusion_coeff sub ratio 0.8       # defining diffusion coeff in the biofilm
fix coeff_metab1 all nufeb/diffusion_coeff metab1 ratio 0.8    # region is 80% of the value in liquid
fix coeff_metab2 all nufeb/diffusion_coeff metab2 ratio 0.8

#---------------------------Chemical Processes---------------------------------#

fix diff_sub all nufeb/diffusion_reaction sub 1e-9        # diffusion reaction for updating
fix diff_metab1 all nufeb/diffusion_reaction metab1 4e-9     # distribusion of substrate concentration
fix diff_metab2 all nufeb/diffusion_reaction metab2 4e-9

#--------------------------Computations and Outputs----------------------------#

variable mass equal "mass(all)"                             # total mass
variable ncross1 equal "count(CROSS1)"                      # total # of CROSS1
variable ncross2 equal "count(CROSS2)"                      # total # of CROSS2
variable ncheater equal "count(CHEATER)"
variable ndead equal "count(dead)"

shell mkdir vtk_NEPS_ch                                            # dump vtk files to /vtk folder
dump du1 all vtk 10 vtk_NEPS_ch/dump*.vtu id type diameter         # require build NUFEB with vtk option
dump du2 all grid/vtk 10 vtk_NEPS_ch/dump_%_*.vti con rea den gro

#dump du3 all movie 10 movie.avi type diameter view 80 60    # dump video
#dump_modify du3 acolor 1 blue acolor 2 lightgrey framerate 10


                                                            # dump hdf5 files to /hdf5 folder
#shell mkdir hdf5                                           # require build NUFEB with hdf5 option
#dump du3 all nufeb/hdf5 10 dump.h5 id type x y z vx vy vz fx fy fz radius conc reac

thermo_style custom step cpu atoms v_ncross1 v_ncross2 v_ncheater v_ndead v_mass     # screen and log outputs
thermo 1
thermo_modify   lost ignore

#-----------------------------------Run----------------------------------------#

# issue run command, define timesteps for physical (pairdt) and chemical (diffdt) processes
run_style nufeb diffdt 1e-4 difftol 1e-6 pairdt 1e-2 pairtol 1 pairmax 1000 diffmax 5000

timestep 12000                                               # define biological timesteps (1000s)

run 320                                                    # growing biofilm for 900x1000s
Generated 0 of 6 mixed pair_coeff terms from geometric mixing rule
Last active /omp style is pair_style gran/hooke/history/omp
Neighbor list info ...
  update every 1 steps, delay 10 steps, check yes
  max neighbors/atom: 2000, page size: 100000
  master list distance cutoff = 2.49e-06
  ghost atom cutoff = 2.49e-06
  binsize = 1.245e-06, bins = 49 49 49
  1 neighbor lists, perpetual/occasional/extra = 1 0 0
  (1) pair gran/hooke/history/omp, perpetual
      attributes: half, newton off, size, history, omp
      pair build: half/size/bin/newtoff/omp
      stencil: full/bin/3d
      bin: standard
Per MPI rank memory allocation (min/avg/max) = 11.02 | 11.02 | 11.02 Mbytes
   Step          CPU          Atoms      v_ncross1      v_ncross2      v_ncheater      v_ndead         v_mass    
         0   0                    150   50             50             50             0              1.3295396e-13
         1   0.37551153           273   96             91             86             0              1.9616795e-13
         2   0.74589308           433   150            148            135            0              2.2439049e-13
         3   1.0387782            547   177            197            173            0              2.4574752e-13
         4   1.3230067            585   183            217            185            0              2.6473031e-13
         5   1.5104569            622   193            229            200            0              2.8221493e-13
         6   1.686075             666   202            247            217            0              2.9884778e-13
         7   1.8231601            710   220            258            232            0              3.1476225e-13
         8   1.9633478            748   234            271            243            0              3.3003374e-13
         9   2.1051941            782   243            281            258            0              3.4470116e-13
        10   2.229562             815   251            289            275            0              3.5845636e-13
        11   2.3254227            845   263            292            290            0              3.7156437e-13
        12   2.4311787            870   269            302            299            0              3.8397721e-13
        13   2.5169625            901   277            309            315            0              3.9564844e-13
        14   2.5984963            937   284            320            333            0              4.0666589e-13
        15   2.6715785            963   289            328            346            0              4.1706787e-13
        16   2.7393039            988   296            334            358            0              4.2684934e-13
        17   2.8079299           1008   298            339            371            0              4.3606604e-13
        18   2.8655379           1036   307            346            383            0              4.4482576e-13
        19   2.9191561           1061   312            351            398            0              4.5305256e-13
        20   3.0050824           1079   318            359            402            0              4.6083988e-13
        21   3.0642472           1103   324            362            417            0              4.6800549e-13
        22   3.1364787           1118   327            365            426            0              4.7486979e-13
        23   3.1920188           1137   332            372            433            0              4.8130533e-13
        24   3.2517186           1164   334            375            455            0              4.8768068e-13
        25   3.3094046           1181   340            378            463            0              4.9386166e-13
        26   3.3665229           1203   345            384            474            0              4.997355e-13 
        27   3.4360408           1220   348            385            487            0              5.0534392e-13
        28   3.4970742           1240   352            392            496            0              5.1079666e-13
        29   3.5500799           1257   352            397            508            0              5.1593218e-13
        30   3.617945            1266   353            400            513            0              5.2085432e-13
        31   3.6702693           1282   358            402            522            0              5.2556042e-13
        32   3.7304671           1298   363            402            533            0              5.3013869e-13
        33   3.7763427           1310   367            402            541            0              5.3457169e-13
        34   3.8197191           1323   369            402            552            0              5.387624e-13 
        35   3.86373             1338   370            405            563            0              5.4273344e-13
        36   3.9151065           1353   371            407            575            0              5.4655838e-13
        37   3.9605901           1370   373            408            589            0              5.5028433e-13
        38   4.0082127           1380   374            408            598            0              5.5387456e-13
        39   4.0557875           1390   375            408            607            0              5.5735655e-13
        40   4.1200935           1398   376            409            613            0              5.6070496e-13
        41   4.1644247           1413   378            410            625            0              5.6391635e-13
        42   4.2047183           1423   381            413            629            0              5.6693417e-13
        43   4.2459394           1440   383            413            644            0              5.6982373e-13
        44   4.291201            1450   384            416            650            0              5.7257575e-13
        45   4.3306693           1456   386            416            654            0              5.7523498e-13
        46   4.3919773           1472   389            419            664            0              5.7777524e-13
        47   4.4490762           1482   391            420            671            0              5.802123e-13 
        48   4.483381            1497   393            420            684            0              5.8256668e-13
        49   4.5284405           1505   394            422            689            0              5.8468453e-13
        50   4.5760511           1514   395            423            696            0              5.8675426e-13
        51   4.6193687           1523   396            425            702            0              5.8867002e-13
        52   4.6724859           1531   396            426            709            0              5.9055203e-13
        53   4.7337302           1534   397            426            711            0              5.9242664e-13
        54   4.7708539           1546   399            427            720            0              5.9432473e-13
        55   4.8437925           1550   399            427            724            0              5.9612382e-13
        56   4.9217855           1561   400            429            731            1              5.9798084e-13
        57   5.0131309           1567   401            429            736            1              5.9993812e-13
        58   5.0988154           1583   401            430            749            3              6.0206291e-13
        59   5.1998478           1591   402            430            754            5              6.0427479e-13
        60   5.3194729           1603   402            430            765            6              6.0672605e-13
        61   5.4231452           1619   404            431            774            10             6.0938718e-13
        62   5.530014            1627   405            431            774            17             6.1217008e-13
        63   5.6277552           1642   406            431            785            20             6.1511371e-13
        64   5.7268034           1657   406            433            792            26             6.1814685e-13
        65   5.8310998           1674   407            433            803            31             6.2140969e-13
        66   5.9142346           1688   407            434            813            34             6.247837e-13 
        67   6.012795            1699   407            434            816            42             6.2814843e-13
        68   6.0951052           1715   407            435            819            54             6.3167605e-13
        69   6.1952322           1733   408            436            824            65             6.3520102e-13
        70   6.2985186           1746   408            436            832            70             6.388733e-13 
        71   6.3635054           1760   408            438            834            80             6.4257118e-13
        72   6.4433144           1773   408            438            835            92             6.4616414e-13
        73   6.5123634           1785   410            438            839            98             6.497691e-13 
        74   6.5976448           1796   410            438            844            104            6.5329992e-13
        75   6.6988197           1816   411            438            857            110            6.5694592e-13
        76   6.7582252           1833   411            439            868            115            6.6068502e-13
        77   6.8708763           1846   411            439            877            119            6.6424186e-13
        78   6.9841438           1866   412            439            893            122            6.6805743e-13
        79   7.116577            1876   412            439            896            129            6.7194163e-13
        80   7.4211686           1888   412            439            900            137            6.7601611e-13
        81   7.6384266           1908   412            439            916            141            6.805727e-13 
        82   7.8422466           1927   412            439            933            143            6.8586579e-13
        83   8.0206767           1948   412            439            948            149            6.9164876e-13
        84   8.2025113           1969   412            439            964            154            6.9767296e-13
        85   8.3713946           1992   413            439            979            161            7.0395967e-13
        86   8.5396213           2014   413            439            996            166            7.1039128e-13
        87   8.7017108           2040   413            440            1018           169            7.1700364e-13
        88   8.8356253           2064   415            440            1038           171            7.2366617e-13
        89   8.9514805           2086   416            440            1055           175            7.3019599e-13
        90   9.0891384           2115   416            440            1075           184            7.3648415e-13
        91   9.2067804           2135   416            440            1091           188            7.4267004e-13
        92   9.3423077           2162   416            440            1114           192            7.487394e-13 
        93   9.4951108           2193   417            440            1138           198            7.5491426e-13
        94   9.6642849           2218   417            440            1160           201            7.6126178e-13
        95   9.8717775           2235   417            440            1175           203            7.677907e-13 
        96   10.120767           2267   417            440            1202           208            7.748052e-13 
        97   10.351999           2298   417            440            1227           214            7.8250463e-13
        98   10.632177           2326   417            440            1254           215            7.9074053e-13
        99   10.905772           2364   417            440            1288           219            7.9987355e-13
       100   11.216657           2400   417            440            1316           227            8.0973621e-13
       101   11.506474           2433   417            441            1345           230            8.203821e-13 
       102   11.779507           2477   417            441            1387           232            8.3168815e-13
       103   12.00042            2526   417            441            1432           236            8.4352699e-13
       104   12.259133           2561   417            441            1455           248            8.5532801e-13
       105   12.472151           2612   417            441            1500           254            8.6731942e-13
       106   12.675591           2664   417            441            1549           257            8.7919461e-13
       107   12.892268           2709   417            441            1586           265            8.9107827e-13
       108   13.099143           2752   417            441            1622           272            9.0302767e-13
       109   13.356646           2795   417            441            1663           274            9.1488975e-13
       110   13.622035           2851   417            441            1715           278            9.2730242e-13
       111   13.927817           2901   417            441            1762           281            9.3987313e-13
       112   14.251663           2954   417            441            1808           288            9.5293001e-13
       113   14.589883           3015   416            441            1866           292            9.666803e-13 
       114   14.908018           3064   416            441            1911           296            9.8114738e-13
       115   15.247177           3115   416            440            1954           305            9.9596027e-13
       116   15.552701           3183   416            440            2014           313            1.0112406e-12
       117   15.820016           3246   415            439            2070           322            1.0266082e-12
       118   16.061184           3298   415            439            2115           329            1.0418569e-12
       119   16.285988           3356   415            439            2167           335            1.0567546e-12
       120   16.56523            3416   415            438            2223           340            1.0713086e-12
       121   16.867439           3479   415            438            2282           344            1.0859619e-12
       122   17.166064           3536   415            438            2333           350            1.1008845e-12
       123   17.564963           3592   415            438            2380           359            1.1158763e-12
       124   17.910777           3661   415            438            2447           361            1.1317913e-12
       125   18.292233           3724   415            438            2504           367            1.1482243e-12
       126   18.668669           3793   415            438            2567           373            1.16613e-12  
       127   19.052469           3865   413            438            2634           380            1.1849141e-12
       128   19.411571           3947   413            437            2712           385            1.204566e-12 
       129   19.782589           4019   413            437            2780           389            1.2242723e-12
       130   20.178389           4095   413            437            2853           392            1.2444012e-12
       131   20.518846           4173   413            437            2927           396            1.2643956e-12
       132   20.857051           4255   412            437            3006           400            1.2844393e-12
       133   21.164337           4330   412            437            3080           401            1.3044169e-12
       134   21.487227           4414   412            437            3160           405            1.3239974e-12
       135   21.869428           4506   412            437            3249           408            1.3435214e-12
       136   22.252427           4594   411            437            3337           409            1.3640016e-12
       137   22.650384           4685   411            437            3426           411            1.3851995e-12
       138   23.028596           4766   411            437            3506           412            1.4068102e-12
       139   23.404376           4861   411            437            3600           413            1.4293608e-12
       140   23.808297           4961   411            437            3698           415            1.452611e-12 
       141   24.177661           5073   410            436            3805           422            1.476327e-12 
       142   24.545941           5169   409            435            3896           429            1.5000011e-12
       143   24.908162           5273   409            435            3994           435            1.5235018e-12
       144   25.273446           5371   409            435            4083           444            1.5465905e-12
       145   25.621929           5479   409            435            4188           447            1.5695766e-12
       146   25.958081           5582   409            435            4284           454            1.5920283e-12
       147   26.371936           5702   409            434            4396           463            1.6139709e-12
       148   26.790499           5801   409            434            4484           474            1.6361595e-12
       149   27.211017           5903   409            434            4579           481            1.6593597e-12
       150   27.655578           5987   408            434            4655           490            1.6828249e-12
       151   28.082772           6100   408            434            4761           497            1.7076742e-12
       152   28.507733           6221   408            434            4874           505            1.7333876e-12
       153   28.92562            6341   408            433            4981           519            1.7602641e-12
       154   29.329548           6458   408            432            5087           531            1.7875166e-12
       155   29.741331           6579   408            432            5197           542            1.8150153e-12
       156   30.155589           6704   408            430            5310           556            1.842401e-12 
       157   30.56262            6823   408            430            5422           563            1.869681e-12 
       158   30.982949           6963   408            430            5556           569            1.8970244e-12
       159   31.4146             7087   408            430            5672           577            1.9238367e-12
       160   31.869095           7191   407            430            5764           590            1.9505972e-12
       161   32.29507            7331   407            430            5893           601            1.9771001e-12
       162   32.791503           7457   407            430            6003           617            2.0045584e-12
       163   33.224941           7607   407            429            6147           624            2.0336764e-12
       164   33.64624            7737   406            429            6263           639            2.0646184e-12
       165   34.08294            7900   406            428            6414           652            2.0969442e-12
       166   34.517013           8052   406            428            6553           665            2.1309487e-12
       167   34.953555           8207   406            428            6689           684            2.1657095e-12
       168   35.381197           8376   405            428            6834           709            2.2012691e-12
       169   35.820264           8546   405            427            6970           744            2.2371454e-12
       170   36.321558           8716   405            427            7117           767            2.2729197e-12
       171   36.799734           8881   405            427            7243           806            2.3092869e-12
       172   37.298727           9071   405            427            7401           838            2.3457026e-12
       173   37.776312           9244   405            427            7532           880            2.3823788e-12
       174   38.253816           9448   405            426            7687           930            2.4205429e-12
       175   38.734547           9639   405            426            7818           990            2.4606115e-12
       176   39.236018           9819   405            424            7940           1050           2.5021641e-12
       177   39.743337          10029   405            422            8084           1118           2.5448058e-12
       178   40.247529          10227   405            422            8211           1189           2.5891329e-12
       179   40.750143          10416   405            422            8341           1248           2.6344147e-12
       180   41.342788          10641   405            421            8499           1316           2.6806515e-12
       181   41.876448          10859   405            421            8644           1389           2.7283544e-12
       182   42.482912          11072   405            421            8806           1440           2.7761687e-12
       183   43.078455          11291   405            421            8961           1504           2.8248273e-12
       184   43.662623          11521   405            421            9126           1569           2.8750502e-12
       185   44.23624           11735   405            420            9267           1643           2.9262896e-12
       186   44.839912          11986   405            420            9446           1715           2.979937e-12 
       187   45.492079          12238   405            420            9615           1798           3.0372474e-12
       188   46.142113          12482   405            420            9795           1862           3.0961244e-12
       189   46.806301          12740   405            420            9972           1943           3.1585076e-12
       190   47.528784          13007   404            420            10163          2020           3.2238649e-12
       191   48.225609          13255   404            420            10328          2103           3.2922521e-12
       192   48.975909          13541   404            420            10553          2164           3.362723e-12 
       193   49.721334          13848   404            420            10797          2227           3.4367941e-12
       194   50.541756          14168   404            420            11062          2282           3.5139432e-12
       195   51.36489           14477   404            420            11307          2346           3.5965346e-12
       196   52.334492          14797   403            420            11568          2406           3.6832527e-12
       197   53.313605          15164   403            420            11873          2468           3.7770323e-12
       198   54.324431          15532   403            419            12199          2511           3.8787693e-12
       199   55.394815          15952   403            419            12542          2588           3.9901952e-12
       200   56.628925          16351   403            419            12884          2645           4.1113206e-12
       201   58.175666          16824   403            418            13291          2712           4.2405784e-12
       202   59.738033          17277   403            417            13697          2760           4.3764779e-12
       203   61.596029          17740   403            417            14093          2827           4.5152773e-12
       204   63.506102          18249   401            416            14542          2890           4.6520122e-12
       205   65.454215          18736   401            415            14982          2938           4.7946971e-12
       206   67.460815          19206   400            414            15388          3004           4.9297195e-12
       207   69.507359          19744   400            412            15859          3073           5.0761403e-12
       208   71.609131          20249   400            412            16279          3158           5.2279515e-12
       209   73.768111          20820   399            412            16759          3250           5.3731248e-12
       210   76.050772          21327   399            412            17157          3359           5.5130721e-12
       211   78.340684          21836   398            412            17568          3458           5.6573152e-12
       212   80.661002          22386   397            412            18018          3559           5.8120931e-12
       213   83.037496          22993   397            412            18526          3658           5.9641528e-12
       214   85.4571            23603   397            411            19030          3765           6.1288675e-12
       215   87.92928           24218   396            410            19550          3862           6.2954953e-12
       216   90.392             24897   395            410            20132          3960           6.4748056e-12
       217   92.894177          25511   394            406            20633          4078           6.641784e-12 
       218   95.442824          26137   392            406            21130          4209           6.7941598e-12
       219   97.998626          26799   391            404            21661          4343           6.9771421e-12
       220   100.65776          27526   391            401            22228          4506           7.1560834e-12
       221   103.27533          28205   390            397            22718          4700           7.3529877e-12
       222   105.87645          28967   386            394            23308          4879           7.5425627e-12
       223   108.46243          29692   385            390            23863          5054           7.7395153e-12
       224   111.06816          30437   383            385            24430          5239           7.9357657e-12
       225   113.67724          31160   380            373            24959          5448           8.1192818e-12
       226   116.31873          31978   373            367            25588          5650           8.3405335e-12
       227   118.9574           32694   369            361            26096          5868           8.5354958e-12
       228   121.61515          33479   365            356            26651          6107           8.7226541e-12
       229   124.27784          34262   361            345            27205          6351           8.9217637e-12
       230   127.03032          35039   351            341            27760          6587           9.1361064e-12
       231   129.75433          35878   346            325            28358          6849           9.3388091e-12
       232   132.43175          36733   339            314            28962          7118           9.5446717e-12
       233   135.14312          37553   334            310            29524          7385           9.7242411e-12
       234   137.8267           38333   323            298            30046          7666           9.9188988e-12
       235   140.55004          39106   312            287            30556          7951           1.0105764e-11
       236   143.28352          39877   294            278            31079          8226           1.0271703e-11
       237   146.01133          40649   279            262            31615          8493           1.0423701e-11
       238   148.78137          41403   267            252            32097          8787           1.0572213e-11
       239   151.5622           42154   244            233            32608          9069           1.0716637e-11
       240   154.44078          42784   224            205            33016          9339           1.0843198e-11
       241   157.25251          43448   206            185            33419          9638           1.095637e-11 
       242   160.09799          44127   196            164            33865          9902           1.1085258e-11
       243   162.97666          44745   167            145            34275          10158          1.1157027e-11
       244   165.85125          45401   150            125            34768          10358          1.1257659e-11
       245   168.74671          46024   139            109            35233          10543          1.1328541e-11
       246   171.63786          46574   115            91             35646          10722          1.141882e-11 
       247   174.58394          47196   96             75             36128          10897          1.150027e-11 
       248   177.56631          47739   81             66             36554          11038          1.152667e-11 
       249   180.54793          48343   75             52             37015          11201          1.1585698e-11
       250   183.66455          48815   67             39             37324          11385          1.1651313e-11
       251   186.68288          49390   57             31             37693          11609          1.1698733e-11
       252   189.72478          49894   43             24             37990          11837          1.1714293e-11
       253   192.83891          50408   29             17             38261          12101          1.1740279e-11
       254   195.93451          50869   24             15             38454          12376          1.1759406e-11
       255   199.05449          51395   16             5              38699          12675          1.1804427e-11
       256   202.20997          51895   11             3              38886          12995          1.1831231e-11
       257   205.35817          52311   5              2              38932          13372          1.1823713e-11
       258   208.56502          52740   4              0              38988          13748          1.1838646e-11
       259   211.81777          53085   3              0              38983          14099          1.1818346e-11
       260   215.21349          53573   2              0              39102          14469          1.1813886e-11
       261   218.49408          54024   1              0              39174          14849          1.1832585e-11
       262   221.83513          54419   0              0              39217          15202          1.1826935e-11
       263   225.20208          54899   0              0              39335          15564          1.183729e-11 
       264   228.61966          55347   0              0              39446          15901          1.184473e-11 
       265   232.07004          55665   0              0              39417          16248          1.1846353e-11
       266   235.52898          56131   0              0              39604          16527          1.1860593e-11
       267   239.01837          56415   0              0              39594          16821          1.1807249e-11
       268   242.51072          56863   0              0              39732          17131          1.1816341e-11
       269   246.06988          57255   0              0              39830          17425          1.1815984e-11
       270   249.78711          57625   0              0              39927          17698          1.1796014e-11
       271   253.46866          57999   0              0              39987          18012          1.1798295e-11
       272   257.14674          58329   0              0              40011          18318          1.1780729e-11
       273   260.86051          58740   0              0              40122          18618          1.1791615e-11
       274   264.63973          59064   0              0              40172          18892          1.1781897e-11
       275   268.48692          59568   0              0              40375          19193          1.1778366e-11
       276   272.34889          59831   0              0              40316          19515          1.175745e-11 
       277   276.23046          60129   0              0              40298          19831          1.1737695e-11
       278   280.1332           60533   0              0              40386          20147          1.1754533e-11
       279   284.10164          61032   0              0              40576          20456          1.1794465e-11
       280   288.26897          61331   0              0              40555          20776          1.1760546e-11
       281   292.29874          61631   0              0              40514          21117          1.1753219e-11
       282   296.37524          61884   0              0              40422          21462          1.1721072e-11
       283   300.50593          62295   0              0              40489          21806          1.1726592e-11
       284   304.63804          62631   0              0              40498          22133          1.1718836e-11
       285   308.83116          62935   0              0              40443          22492          1.1713448e-11
       286   313.05887          63364   0              0              40517          22847          1.1736789e-11
       287   317.32702          63657   0              0              40454          23203          1.1698589e-11
       288   321.59839          64029   0              0              40446          23583          1.1718701e-11
       289   325.95722          64340   0              0              40368          23972          1.1694401e-11
       290   330.48797          64732   0              0              40379          24353          1.1711088e-11
       291   334.922            65044   0              0              40321          24723          1.1715982e-11
       292   339.41283          65386   0              0              40254          25132          1.1709075e-11
       293   343.99346          65700   0              0              40175          25525          1.1704088e-11
       294   348.38789          66126   0              0              40183          25943          1.1733976e-11
       295   353.01604          66366   0              0              40027          26339          1.1713808e-11
       296   357.71083          66659   0              0              39887          26772          1.1691736e-11
       297   362.3786           67022   0              0              39779          27243          1.170956e-11 
       298   367.12009          67319   0              0              39576          27743          1.170677e-11 
       299   371.9275           67624   0              0              39422          28202          1.1697519e-11
       300   376.84687          68023   0              0              39359          28664          1.1725818e-11
       301   381.74289          68302   0              0              39175          29127          1.1722501e-11
       302   386.60571          68636   0              0              39011          29625          1.1723311e-11
       303   391.44789          68932   0              0              38821          30111          1.172822e-11 
       304   396.47267          69304   0              0              38728          30576          1.1738124e-11
       305   401.35454          69639   0              0              38596          31043          1.1758974e-11
       306   406.29718          70027   0              0              38524          31503          1.1782603e-11
       307   411.48033          70314   0              0              38356          31958          1.17769e-11  
       308   416.68471          70653   0              0              38223          32430          1.1790299e-11
       309   422.00768          70862   0              0              37959          32903          1.1762698e-11
       310   427.32861          71178   0              0              37797          33381          1.177378e-11 
       311   432.57056          71508   0              0              37655          33853          1.1779227e-11
       312   437.95376          71887   0              0              37563          34324          1.1788718e-11
       313   443.23783          72201   0              0              37447          34754          1.1823211e-11
       314   448.62679          72448   0              0              37249          35199          1.1811921e-11
       315   453.98477          72837   0              0              37237          35600          1.1845331e-11
       316   459.49021          73129   0              0              37077          36052          1.1834682e-11
       317   464.96114          73466   0              0              36981          36485          1.1867185e-11
       318   470.54961          73633   0              0              36754          36879          1.1859188e-11
       319   476.14154          74030   0              0              36741          37289          1.1880774e-11
       320   482.02196          74317   0              0              36643          37674          1.1874654e-11
Loop time of 482.022 on 16 procs for 320 steps with 74317 atoms

97.3% CPU use with 16 MPI tasks x 1 OpenMP threads

MPI task timing breakdown:
Section |  min time  |  avg time  |  max time  |%varavg| %total
---------------------------------------------------------------
Pair    | 80.437     | 113.38     | 168.49     | 283.9 | 23.52
Neigh   | 12.332     | 26.008     | 54.677     | 310.6 |  5.40
Comm    | 70.827     | 96.351     | 133.73     | 227.7 | 19.99
Output  | 2.221      | 2.2212     | 2.2222     |   0.0 |  0.46
Modify  | 120.21     | 224.95     | 292.26     | 413.3 | 46.67
Other   |            | 19.12      |            |       |  3.97

Nlocal:        4644.81 ave        7863 max        3218 min
Histogram: 5 7 0 0 0 0 0 0 0 4
Nghost:        3758.31 ave        5927 max        2486 min
Histogram: 4 4 3 1 0 0 0 0 0 4
Neighs:        33848.8 ave       43434 max       27411 min
Histogram: 4 0 2 6 0 0 0 0 0 4

Total # of neighbors = 541581
Ave neighs/atom = 7.2874443
Neighbor list builds = 4057
Dangerous builds = 359

Total wall time: 0:08:29
