LAMMPS (23 Jun 2022 - Update 4)
  using 1 OpenMP thread(s) per MPI task
package omp 0
using multi-threaded neighbor list subroutines
#-----------------------------------------------------------------------------#
#                NUFEB Simulation: Heterotrophic Biofilm Growth               #
#-----------------------------------------------------------------------------#


#-----------------------------System Settings---------------------------------#

units si                                    # using si units (m, s, kg)
atom_style      coccus                      # using nufeb coccus atom style
atom_modify     map array sort 10 0         # map array - find atoms using indices
		                            # sort every 10

boundary        pp pp ff                    # periodic boundaries in x and y
                                            # fixed boundary in z

newton          off                         # forces between local and ghost
                                            # atoms are computed in each
					     # processor without communication

processors      * * 1                       # processor grid

comm_modify     vel yes                     # communicate velocities for ghost atoms

read_data       atom_ch.in	             # read atom.in file which defines domain size
Reading data file ...
  orthogonal box = (0 0 0) to (6e-05 6e-05 6e-05)
  4 by 4 by 1 MPI processor grid
  reading atoms ...
  150 atoms
  read_data CPU = 0.011 seconds
                                            # and initial atoms


#--------------------Microbes and Functional Groups-------------------------#

group           CROSS1   type 1               # assign type 1,2 atoms to CROSS group
50 atoms in group CROSS1
group           CROSS2   type 2
50 atoms in group CROSS2
group		CHEATER  type 3
50 atoms in group CHEATER
group           dead     type 4
0 atoms in group dead

neighbor        5e-7 bin                   # setting neighbour skin distance and style

neigh_modify    check yes                  # rebuild neighbour list if any atom
                                           # had moved more than half the skin distance


#--------------------------Mesh Grid and Substrates--------------------------#

# defining grid sytle, substrate names, and grid size
grid_style      nufeb/chemostat 3 sub metab1 metab2 5e-6

# set diffusion boundary conditions and initial concentrations (liquid:kg/m3)
grid_modify     set sub      pp pp nd  1.8e-4
No /omp style for force computation currently active
grid_modify     set metab1   pp pp nd  1e-4
No /omp style for force computation currently active
grid_modify     set metab2   pp pp nd  1e-4
No /omp style for force computation currently active


#--------------------------Biological Processes-------------------------------#

# heterotrophs growth
fix growth_cross1 CROSS1 nufeb/growth/cross1 sub 3.5e-5 metab2 4e-3 metab1 growth 0.009 yield 0.6 decay 2.6e-6 metab1_exp 20

fix growth_cross2 CROSS2 nufeb/growth/cross2 sub 3.5e-5 metab1 4e-3 metab2 growth 0.009 yield 0.6 decay 2.6e-6 metab2_exp 20

fix growth_cheater CHEATER nufeb/growth/cheater sub 3.5e-5 metab1 1e-3 metab2 1e-3 growth 0.009 yield 0.6 decay 2.6e-6
# heterotrophs division, division diameter: 1.36e-6
fix div1 CROSS1 nufeb/division/coccus 1.36e-6 1784
fix div2 CROSS2 nufeb/division/coccus 1.36e-6 6830
fix div3 CHEATER nufeb/division/coccus 1.36e-6 15238

fix death1 CROSS1 nufeb/death/diameter dead 5.43e-7
fix death2 CROSS2 nufeb/death/diameter dead 5.43e-7
fix death3 CHEATER nufeb/death/diameter dead 5.43e-7

#---------------------------Physical Processes--------------------------------#

pair_style  gran/hooke/history 1e-4 NULL 1e-5 NULL 0.0 0    # pairwise interaction
pair_coeff  * *                                             # between atoms

# pairwise interaction between z-wall and atoms
fix wall all wall/gran hooke/history 1e-3 NULL 1e-4 NULL 0 0 zplane 0.0 1e-04

fix vis all viscous 1e-5                                    # viscous damping force

fix grav all gravity 9.81 vector 0.0 0.0 -1.0

fix nve all nve/limit 1e-7                                  # NVE integration with
                                                            # maximum distance limit


#---------------------------Post-Physical Processes---------------------------#

fix coeff_sub all nufeb/diffusion_coeff sub ratio 0.8       # defining diffusion coeff in the biofilm
fix coeff_metab1 all nufeb/diffusion_coeff metab1 ratio 0.8    # region is 80% of the value in liquid
fix coeff_metab2 all nufeb/diffusion_coeff metab2 ratio 0.8

#---------------------------Chemical Processes---------------------------------#

fix diff_sub all nufeb/diffusion_reaction sub 1e-9        # diffusion reaction for updating
fix diff_metab1 all nufeb/diffusion_reaction metab1 4e-9     # distribusion of substrate concentration
fix diff_metab2 all nufeb/diffusion_reaction metab2 4e-9

#--------------------------Computations and Outputs----------------------------#

variable mass equal "mass(all)"                             # total mass
variable ncross1 equal "count(CROSS1)"                      # total # of CROSS1
variable ncross2 equal "count(CROSS2)"                      # total # of CROSS2
variable ncheater equal "count(CHEATER)"
variable ndead equal "count(dead)"

shell mkdir vtk_NEPS_ch                                            # dump vtk files to /vtk folder
dump du1 all vtk 10 vtk_NEPS_ch/dump*.vtu id type diameter         # require build NUFEB with vtk option
dump du2 all grid/vtk 10 vtk_NEPS_ch/dump_%_*.vti con rea den gro

#dump du3 all movie 10 movie.avi type diameter view 80 60    # dump video
#dump_modify du3 acolor 1 blue acolor 2 lightgrey framerate 10


                                                            # dump hdf5 files to /hdf5 folder
#shell mkdir hdf5                                           # require build NUFEB with hdf5 option
#dump du3 all nufeb/hdf5 10 dump.h5 id type x y z vx vy vz fx fy fz radius conc reac

thermo_style custom step cpu atoms v_ncross1 v_ncross2 v_ncheater v_ndead v_mass     # screen and log outputs
thermo 1
thermo_modify   lost ignore

#-----------------------------------Run----------------------------------------#

# issue run command, define timesteps for physical (pairdt) and chemical (diffdt) processes
run_style nufeb diffdt 1e-4 difftol 1e-6 pairdt 1e-2 pairtol 1 pairmax 1000 diffmax 5000

timestep 12000                                               # define biological timesteps (1000s)

run 320                                                    # growing biofilm for 900x1000s
Generated 0 of 6 mixed pair_coeff terms from geometric mixing rule
Last active /omp style is pair_style gran/hooke/history/omp
Neighbor list info ...
  update every 1 steps, delay 10 steps, check yes
  max neighbors/atom: 2000, page size: 100000
  master list distance cutoff = 2.49e-06
  ghost atom cutoff = 2.49e-06
  binsize = 1.245e-06, bins = 49 49 49
  1 neighbor lists, perpetual/occasional/extra = 1 0 0
  (1) pair gran/hooke/history/omp, perpetual
      attributes: half, newton off, size, history, omp
      pair build: half/size/bin/newtoff/omp
      stencil: full/bin/3d
      bin: standard
Per MPI rank memory allocation (min/avg/max) = 11.02 | 11.02 | 11.02 Mbytes
   Step          CPU          Atoms      v_ncross1      v_ncross2      v_ncheater      v_ndead         v_mass    
         0   0                    150   50             50             50             0              1.3295396e-13
         1   0.38387805           273   96             91             86             0              1.9616795e-13
         2   0.75373548           434   148            150            136            0              2.2407325e-13
         3   1.0673471            544   177            194            173            0              2.451543e-13 
         4   1.3556914            595   186            218            191            0              2.636957e-13 
         5   1.5430201            627   194            228            205            0              2.8099212e-13
         6   1.6933531            665   207            241            217            0              2.9730596e-13
         7   1.832349             698   216            257            225            0              3.1280824e-13
         8   1.9563996            732   225            267            240            0              3.2744261e-13
         9   2.0596677            778   245            280            253            0              3.4144502e-13
        10   3.0870853            807   254            285            268            0              3.5471106e-13
        11   3.1891648            835   258            295            282            0              3.6740916e-13
        12   3.2951865            868   269            305            294            0              3.7942668e-13
        13   3.3909381            902   277            316            309            0              3.9106291e-13
        14   3.4807662            926   280            322            324            0              4.0223913e-13
        15   3.5736455            950   285            329            336            0              4.1293375e-13
        16   3.6455993            974   289            336            349            0              4.2316719e-13
        17   3.722732            1001   295            342            364            0              4.328808e-13 
        18   3.7934209           1023   298            348            377            0              4.4207663e-13
        19   3.8845209           1040   301            352            387            0              4.5083334e-13
        20   4.0522949           1059   304            355            400            0              4.5922227e-13
        21   4.131157            1079   307            360            412            0              4.671912e-13 
        22   4.248698            1104   315            364            425            0              4.7478197e-13
        23   4.3157073           1130   319            367            444            0              4.8185551e-13
        24   4.3882256           1148   324            370            454            0              4.8858112e-13
        25   4.4689998           1169   330            374            465            0              4.9501036e-13
        26   4.5472746           1192   335            377            480            0              5.0118817e-13
        27   4.6248159           1209   335            381            493            0              5.0707363e-13
        28   4.6890975           1228   339            382            507            0              5.1264106e-13
        29   4.7524798           1244   345            383            516            0              5.1805591e-13
        30   4.8299575           1260   349            385            526            0              5.2327638e-13
        31   4.8985005           1274   351            390            533            0              5.2831302e-13
        32   4.9653683           1288   355            391            542            0              5.3324438e-13
        33   5.011302            1308   359            393            556            0              5.3802717e-13
        34   5.0724071           1332   366            394            572            0              5.4257805e-13
        35   5.1417402           1345   368            395            582            0              5.469731e-13 
        36   5.2123319           1362   370            395            597            0              5.5126734e-13
        37   5.2691991           1369   372            395            602            0              5.5551772e-13
        38   5.3515159           1378   372            397            609            0              5.5959247e-13
        39   5.4201217           1390   375            397            618            0              5.6366812e-13
        40   5.6057231           1399   375            399            625            0              5.6768068e-13
        41   5.7518991           1412   377            399            636            0              5.71685e-13  
        42   5.8660566           1429   380            402            647            0              5.7570667e-13
        43   5.9869083           1445   383            403            659            0              5.7986324e-13
        44   6.1055265           1458   384            405            669            0              5.8411077e-13
        45   6.2171329           1478   386            405            687            0              5.8848969e-13
        46   6.328776            1491   387            405            699            0              5.9298308e-13
        47   6.4458859           1517   388            406            723            0              5.9757587e-13
        48   6.5580608           1537   392            406            739            0              6.0232224e-13
        49   6.7038042           1552   392            406            754            0              6.0710399e-13
        50   6.8570127           1571   393            406            772            0              6.1216502e-13
        51   7.3451103           1589   393            407            789            0              6.1745866e-13
        52   7.4546418           1613   394            407            812            0              6.2262854e-13
        53   7.5802526           1638   395            410            832            1              6.2788943e-13
        54   7.7104102           1654   396            410            847            1              6.3329481e-13
        55   7.8318335           1675   398            410            866            1              6.3885158e-13
        56   7.9560701           1693   399            410            881            3              6.4448585e-13
        57   8.1318712           1710   401            410            895            4              6.5018598e-13
        58   8.2735209           1739   403            410            921            5              6.5625675e-13
        59   8.4013723           1757   403            412            934            8              6.626374e-13 
        60   8.5659638           1782   405            413            950            14             6.6900752e-13
        61   8.7171607           1814   406            413            975            20             6.7572944e-13
        62   8.9105768           1835   406            413            990            26             6.8257019e-13
        63   9.1043481           1856   406            414            1001           35             6.900185e-13 
        64   9.2982556           1891   406            415            1031           39             6.9776919e-13
        65   9.4995867           1915   406            415            1045           49             7.0588488e-13
        66   9.7153793           1949   408            415            1072           54             7.1431957e-13
        67   9.9095854           1976   408            415            1094           59             7.2310351e-13
        68   10.105367           2002   408            416            1112           66             7.3212893e-13
        69   10.28255            2027   408            416            1132           71             7.4126118e-13
        70   10.484178           2071   408            416            1165           82             7.5051325e-13
        71   10.665843           2096   408            416            1180           92             7.5987428e-13
        72   10.841308           2127   408            416            1202           101            7.6932353e-13
        73   11.036405           2160   409            416            1222           113            7.7865057e-13
        74   11.264845           2188   410            416            1244           118            7.8819641e-13
        75   11.501981           2226   410            416            1274           126            7.9812039e-13
        76   11.803938           2262   410            416            1305           131            8.0862805e-13
        77   12.048161           2303   412            416            1340           135            8.1977729e-13
        78   12.383652           2348   414            416            1373           145            8.3120954e-13
        79   12.686413           2391   414            416            1411           150            8.436704e-13 
        80   13.035383           2433   416            416            1448           153            8.5676126e-13
        81   13.329151           2483   416            416            1493           158            8.7072436e-13
        82   13.626255           2533   417            416            1540           160            8.8501689e-13
        83   13.925213           2587   417            416            1591           163            8.9966672e-13
        84   14.180383           2637   417            416            1638           166            9.1453031e-13
        85   14.411977           2691   417            416            1688           170            9.2936266e-13
        86   14.648038           2754   418            416            1746           174            9.4392171e-13
        87   14.855916           2807   418            416            1795           178            9.5841837e-13
        88   15.065275           2861   418            416            1844           183            9.7242244e-13
        89   15.283686           2923   417            416            1904           186            9.8614661e-13
        90   15.571662           2975   417            416            1952           190            9.99609e-13  
        91   15.895955           3026   417            416            2002           191            1.0136312e-12
        92   16.201241           3081   417            416            2054           194            1.0279402e-12
        93   16.578346           3132   417            416            2098           201            1.0425826e-12
        94   16.971452           3192   417            416            2151           208            1.0584615e-12
        95   17.481736           3266   413            415            2220           218            1.0759789e-12
        96   17.86661            3323   413            416            2269           225            1.0939648e-12
        97   18.250833           3397   413            415            2339           230            1.1126167e-12
        98   18.617882           3459   412            415            2394           238            1.1318887e-12
        99   18.966914           3543   412            415            2468           248            1.1513284e-12
       100   19.312243           3621   412            414            2540           255            1.170835e-12 
       101   19.616954           3710   410            414            2617           269            1.1902543e-12
       102   19.943664           3774   409            414            2675           276            1.2093163e-12
       103   20.259488           3851   409            414            2741           287            1.2284584e-12
       104   20.611303           3927   408            413            2813           293            1.2474603e-12
       105   21.006291           4018   408            411            2898           301            1.2666798e-12
       106   21.395714           4099   407            411            2971           310            1.2865956e-12
       107   21.785429           4177   407            411            3044           315            1.3071029e-12
       108   22.189114           4278   407            411            3142           318            1.3286943e-12
       109   22.600334           4377   408            411            3231           327            1.3513878e-12
       110   23.014794           4468   408            409            3317           334            1.3749863e-12
       111   23.416239           4568   407            409            3411           341            1.3993279e-12
       112   23.819092           4658   406            409            3495           348            1.4240377e-12
       113   24.225765           4790   406            409            3624           351            1.4485082e-12
       114   24.58158            4891   406            409            3722           354            1.4727068e-12
       115   24.964814           4993   406            409            3823           355            1.496303e-12 
       116   25.341159           5086   405            409            3914           358            1.519702e-12 
       117   25.704356           5189   405            409            4014           361            1.5426745e-12
       118   26.084015           5288   404            409            4110           365            1.5653196e-12
       119   26.488249           5391   403            409            4209           370            1.587929e-12 
       120   26.928872           5499   403            409            4312           375            1.610738e-12 
       121   27.341907           5605   403            409            4414           379            1.6347727e-12
       122   27.830777           5726   403            409            4533           381            1.65956e-12  
       123   28.255988           5827   403            409            4629           386            1.6854238e-12
       124   28.688091           5952   403            409            4751           389            1.7123537e-12
       125   29.104876           6086   403            409            4874           400            1.7398077e-12
       126   29.509275           6214   402            409            4995           408            1.7676524e-12
       127   29.915957           6340   400            409            5112           419            1.7953522e-12
       128   30.321632           6452   400            409            5214           429            1.8226858e-12
       129   30.722606           6592   400            409            5348           435            1.849655e-12 
       130   31.181563           6702   399            409            5446           448            1.8760805e-12
       131   31.590665           6831   398            409            5568           456            1.9027235e-12
       132   32.008479           6970   398            408            5696           468            1.9287433e-12
       133   32.43067            7084   398            408            5796           482            1.9547754e-12
       134   32.86782            7222   398            407            5923           494            1.981361e-12 
       135   33.299031           7345   398            406            6032           509            2.0083267e-12
       136   33.734609           7474   397            405            6139           533            2.0365959e-12
       137   34.173901           7617   394            405            6255           563            2.0654651e-12
       138   34.624284           7740   394            405            6353           588            2.0950937e-12
       139   35.057608           7880   394            405            6472           609            2.1254843e-12
       140   35.522998           8017   392            405            6587           633            2.1563871e-12
       141   35.960526           8166   392            404            6714           656            2.1874414e-12
       142   36.389655           8319   392            404            6846           677            2.2186749e-12
       143   36.824579           8470   392            404            6969           705            2.2498809e-12
       144   37.271456           8622   390            403            7089           740            2.2810153e-12
       145   37.715675           8765   388            403            7192           782            2.3126296e-12
       146   38.165612           8938   388            402            7330           818            2.3455002e-12
       147   38.621814           9078   387            402            7429           860            2.3784095e-12
       148   39.097163           9239   387            402            7545           905            2.4126647e-12
       149   39.580085           9411   387            402            7682           940            2.4475155e-12
       150   40.108311           9571   387            401            7807           976            2.4825265e-12
       151   40.589211           9744   387            400            7935           1022           2.5176992e-12
       152   41.08159            9916   386            400            8050           1080           2.5534044e-12
       153   41.578528          10095   386            398            8169           1142           2.5892325e-12
       154   42.093648          10270   386            398            8293           1193           2.6258267e-12
       155   42.621682          10452   386            398            8418           1250           2.6632343e-12
       156   43.12588           10620   386            398            8528           1308           2.7019819e-12
       157   43.649701          10790   386            398            8634           1372           2.7427184e-12
       158   44.174993          10995   386            397            8794           1418           2.7845184e-12
       159   44.69148           11192   384            397            8935           1476           2.828951e-12 
       160   45.251029          11413   384            397            9099           1533           2.8749045e-12
       161   45.784193          11607   384            396            9233           1594           2.9224369e-12
       162   46.317644          11837   382            396            9402           1657           2.9704474e-12
       163   46.872968          12034   381            396            9530           1727           3.019484e-12 
       164   47.444921          12244   381            396            9657           1810           3.068653e-12 
       165   48.056401          12479   380            396            9821           1882           3.1189214e-12
       166   48.658058          12713   380            396            9971           1966           3.1696445e-12
       167   49.262113          12960   380            396            10154          2030           3.222628e-12 
       168   49.896545          13213   380            396            10345          2092           3.278639e-12 
       169   50.543378          13464   380            396            10535          2153           3.3379732e-12
       170   51.267787          13710   380            396            10712          2222           3.3997492e-12
       171   51.933535          13993   379            395            10930          2289           3.4653216e-12
       172   52.593641          14295   378            395            11151          2371           3.5350845e-12
       173   53.293435          14585   378            395            11371          2441           3.6089943e-12
       174   54.086633          14906   376            395            11615          2520           3.6856463e-12
       175   54.861601          15242   376            395            11865          2606           3.7647532e-12
       176   55.707709          15587   374            395            12114          2704           3.8472608e-12
       177   56.615349          15937   374            394            12369          2800           3.9339718e-12
       178   57.53219           16333   373            393            12672          2895           4.0259972e-12
       179   58.495889          16710   373            391            12972          2974           4.1234972e-12
       180   59.685456          17082   371            391            13243          3077           4.2304931e-12
       181   60.8832            17523   368            388            13586          3181           4.3467885e-12
       182   62.173131          17976   368            387            13948          3273           4.4761446e-12
       183   63.671895          18468   368            386            14350          3364           4.6133135e-12
       184   65.220053          18981   367            385            14768          3461           4.7609896e-12
       185   67.026845          19504   366            382            15196          3560           4.9077892e-12
       186   69.041509          20032   363            382            15644          3643           5.0501144e-12
       187   71.100183          20541   359            379            16045          3758           5.1976683e-12
       188   73.363698          21088   358            377            16509          3844           5.3453428e-12
       189   75.668079          21636   356            376            16955          3949           5.4921877e-12
       190   78.080519          22220   351            375            17474          4020           5.6456066e-12
       191   80.46516           22774   347            373            17926          4128           5.8000652e-12
       192   82.888872          23340   345            367            18414          4214           5.9525792e-12
       193   85.366296          23947   343            364            18931          4309           6.1095016e-12
       194   87.89987           24518   341            362            19423          4392           6.2576111e-12
       195   90.435776          25100   340            360            19907          4493           6.4288763e-12
       196   92.973299          25764   337            354            20455          4618           6.5968696e-12
       197   95.530085          26458   335            347            21042          4734           6.7753542e-12
       198   98.095491          27172   334            345            21657          4836           6.9575899e-12
       199   100.66672          27788   329            336            22184          4939           7.1268978e-12
       200   103.28089          28516   324            334            22797          5061           7.3095791e-12
       201   105.84228          29218   318            330            23379          5191           7.4987903e-12
       202   108.44788          29945   310            323            23996          5316           7.6760159e-12
       203   111.00968          30689   304            315            24629          5441           7.8707788e-12
       204   113.60187          31467   299            306            25282          5580           8.0870089e-12
       205   116.16823          32325   291            298            26016          5720           8.2931356e-12
       206   118.74312          33169   282            290            26722          5875           8.5160186e-12
       207   121.30937          33993   274            280            27398          6041           8.7344718e-12
       208   123.90078          34847   264            271            28092          6220           8.9464983e-12
       209   126.46726          35699   250            260            28792          6397           9.1615971e-12
       210   129.12134          36567   235            253            29508          6571           9.3797272e-12
       211   131.72032          37543   230            237            30325          6751           9.6159765e-12
       212   134.40088          38438   212            224            31038          6964           9.839531e-12 
       213   137.03875          39304   188            203            31686          7227           1.0053102e-11
       214   139.66656          40202   175            188            32342          7497           1.0253737e-11
       215   142.32942          41103   162            166            33003          7772           1.0458639e-11
       216   144.99469          41921   141            150            33579          8051           1.0643985e-11
       217   147.65309          42857   123            137            34221          8376           1.0823189e-11
       218   150.36204          43610   108            125            34683          8694           1.099336e-11 
       219   153.0796           44343   97             104            35109          9033           1.1115905e-11
       220   155.93726          45176   78             88             35606          9404           1.1266054e-11
       221   158.70561          45885   68             79             35990          9748           1.1381314e-11
       222   161.47334          46505   56             66             36286          10097          1.145028e-11 
       223   164.26247          47218   44             56             36592          10526          1.1580258e-11
       224   167.05752          47870   38             44             36874          10914          1.1659245e-11
       225   169.91471          48472   29             33             37097          11313          1.1726961e-11
       226   172.79449          49135   23             25             37407          11680          1.1778146e-11
       227   175.67424          49731   16             20             37667          12028          1.1861001e-11
       228   178.55356          50252   14             15             37858          12365          1.1907901e-11
       229   181.45842          50860   13             10             38161          12676          1.1946499e-11
       230   184.54546          51447   9              7              38458          12973          1.1970732e-11
       231   187.51006          51902   4              6              38624          13268          1.1986212e-11
       232   190.50367          52360   2              2              38844          13512          1.2011428e-11
       233   193.54433          52887   1              1              39094          13791          1.2030593e-11
       234   196.59225          53373   1              0              39309          14063          1.2037885e-11
       235   199.65789          53891   1              0              39511          14379          1.2046621e-11
       236   202.75122          54337   1              0              39690          14646          1.2037735e-11
       237   205.86004          54716   1              0              39761          14954          1.2044635e-11
       238   209.0129           55110   1              0              39889          15220          1.2005491e-11
       239   212.172            55543   1              0              39989          15553          1.2007884e-11
       240   215.49939          55995   1              0              40124          15870          1.2003196e-11
       241   218.7077           56396   1              0              40178          16217          1.1998899e-11
       242   221.94253          56820   1              0              40231          16588          1.2004286e-11
       243   225.25228          57255   1              0              40299          16955          1.2003328e-11
       244   228.58296          57683   1              0              40372          17310          1.200722e-11 
       245   231.96726          58091   1              0              40392          17698          1.1976145e-11
       246   235.34076          58458   1              0              40384          18073          1.1972994e-11
       247   238.76931          58811   1              0              40370          18440          1.1928905e-11
       248   242.16808          59261   1              0              40450          18810          1.1951046e-11
       249   245.63955          59582   1              0              40408          19173          1.1940265e-11
       250   249.2675           59990   1              0              40452          19537          1.1926237e-11
       251   252.805            60373   1              0              40453          19919          1.1920867e-11
       252   256.36827          60798   1              0              40499          20298          1.1930428e-11
       253   259.97976          61129   1              0              40503          20625          1.1890394e-11
       254   263.58193          61554   1              0              40611          20942          1.1897674e-11
       255   267.22692          61893   1              0              40634          21258          1.1887302e-11
       256   270.94587          62218   1              0              40676          21541          1.1860411e-11
       257   274.6846           62546   1              0              40720          21825          1.1849937e-11
       258   278.42601          62979   1              0              40866          22112          1.1865559e-11
       259   282.22003          63287   1              0              40867          22419          1.1851935e-11
       260   286.20374          63613   1              0              40908          22704          1.1823022e-11
       261   290.08217          64015   1              0              40965          23049          1.182432e-11 
       262   293.98551          64343   1              0              40980          23362          1.1825123e-11
       263   297.96965          64758   1              0              41062          23695          1.1827919e-11
       264   301.98109          65083   1              0              41039          24043          1.1832269e-11
       265   306.04815          65478   1              0              41073          24404          1.1827014e-11
       266   310.13114          65788   1              0              41041          24746          1.1841855e-11
       267   314.22432          66127   1              0              40981          25145          1.182213e-11 
       268   318.35338          66484   1              0              40967          25516          1.1825849e-11
       269   322.50012          66829   1              0              40898          25930          1.1809737e-11
       270   326.86953          67147   1              0              40789          26357          1.1805113e-11
       271   331.1316           67465   1              0              40668          26796          1.1808385e-11
       272   335.42879          67755   1              0              40485          27269          1.1804277e-11
       273   339.75493          68156   1              0              40429          27726          1.1797234e-11
       274   344.08586          68492   1              0              40302          28189          1.1807032e-11
       275   348.47512          68839   1              0              40196          28642          1.1824233e-11
       276   352.84559          69166   1              0              40071          29094          1.1817698e-11
       277   357.32947          69441   1              0              39877          29563          1.1809126e-11
       278   361.85441          69803   1              0              39749          30053          1.1812597e-11
       279   366.34746          70133   1              0              39563          30569          1.181984e-11 
       280   371.13694          70452   1              0              39389          31062          1.1811251e-11
       281   375.74634          70713   1              0              39174          31538          1.1806487e-11
       282   380.23689          71051   1              0              39053          31997          1.1834604e-11
       283   384.93385          71353   1              0              38878          32474          1.182665e-11 
       284   389.5304           71711   1              0              38762          32948          1.1840248e-11
       285   394.13648          72088   1              0              38631          33456          1.1852609e-11
       286   398.92778          72313   1              0              38400          33912          1.182051e-11 
       287   403.55283          72698   1              0              38286          34411          1.1875432e-11
       288   408.36624          72903   1              0              38010          34892          1.1839979e-11
       289   413.1407           73302   1              0              37922          35379          1.186393e-11 
       290   418.15119          73568   1              0              37736          35831          1.1860587e-11
       291   423.04352          73880   1              0              37600          36279          1.1866593e-11
       292   427.98757          74221   1              0              37480          36740          1.1866527e-11
       293   432.88645          74533   1              0              37344          37188          1.1902574e-11
       294   437.90549          74832   1              0              37215          37616          1.1899085e-11
       295   442.92164          75101   1              0              37069          38031          1.1901582e-11
       296   448.0005           75365   1              0              36906          38458          1.1898703e-11
       297   453.04349          75782   1              0              36952          38829          1.1934332e-11
       298   458.13972          76141   1              0              36899          39241          1.1962332e-11
       299   463.28905          76456   1              0              36792          39663          1.1973277e-11
       300   468.72374          76639   1              0              36555          40083          1.1955879e-11
       301   474.02597          76963   1              0              36512          40450          1.1971652e-11
       302   479.38528          77291   1              0              36443          40847          1.1980968e-11
       303   484.78539          77612   1              0              36398          41213          1.1984028e-11
       304   490.20169          77927   1              0              36363          41563          1.1994751e-11
       305   495.62946          78177   1              0              36253          41923          1.1990313e-11
       306   501.07031          78430   1              0              36179          42250          1.2000992e-11
       307   506.50575          78784   1              0              36160          42623          1.2026525e-11
       308   511.97273          79147   1              0              36140          43006          1.205742e-11 
       309   517.51391          79374   1              0              35993          43380          1.2046266e-11
       310   523.27647          79762   1              0              36062          43699          1.2071311e-11
       311   528.90167          80027   1              0              36020          44006          1.2074626e-11
       312   534.63873          80301   1              0              35961          44339          1.208632e-11 
       313   540.40706          80667   1              0              35983          44683          1.2092462e-11
       314   546.20293          80924   1              0              35907          45016          1.2116193e-11
       315   551.9978           81251   1              0              35882          45368          1.213528e-11 
       316   557.87668          81511   1              0              35848          45662          1.2116686e-11
       317   563.83046          81821   1              0              35832          45988          1.2117859e-11
       318   569.71115          82139   1              0              35849          46289          1.2125195e-11
       319   575.70177          82408   1              0              35820          46587          1.2157572e-11
       320   581.89462          82604   1              0              35716          46887          1.2147759e-11
Loop time of 581.895 on 16 procs for 320 steps with 82604 atoms

97.3% CPU use with 16 MPI tasks x 1 OpenMP threads

MPI task timing breakdown:
Section |  min time  |  avg time  |  max time  |%varavg| %total
---------------------------------------------------------------
Pair    | 119.37     | 154.22     | 223.47     | 237.3 | 26.50
Neigh   | 19.595     | 35.437     | 76.297     | 292.2 |  6.09
Comm    | 77.558     | 103.21     | 134.92     | 171.9 | 17.74
Output  | 3.4662     | 3.4673     | 3.4734     |   0.1 |  0.60
Modify  | 135.69     | 264.29     | 335.58     | 355.0 | 45.42
Other   |            | 21.26      |            |       |  3.65

Nlocal:        5162.75 ave        8872 max        3601 min
Histogram: 6 4 0 2 0 0 2 0 0 2
Nghost:        4053.31 ave        5844 max        2977 min
Histogram: 6 0 2 1 1 1 3 0 0 2
Neighs:        39263.2 ave       50392 max       32185 min
Histogram: 2 3 2 1 4 1 1 0 0 2

Total # of neighbors = 628212
Ave neighs/atom = 7.6051039
Neighbor list builds = 4560
Dangerous builds = 388

Total wall time: 0:09:49
