LAMMPS (23 Jun 2022 - Update 4)
  using 1 OpenMP thread(s) per MPI task
package omp 0
using multi-threaded neighbor list subroutines
#-----------------------------------------------------------------------------#
#                NUFEB Simulation: Heterotrophic Biofilm Growth               #
#-----------------------------------------------------------------------------#


#-----------------------------System Settings---------------------------------#

units si                                    # using si units (m, s, kg)
atom_style      coccus                      # using nufeb coccus atom style
atom_modify     map array sort 10 0         # map array - find atoms using indices
		                            # sort every 10

boundary        pp pp ff                    # periodic boundaries in x and y
                                            # fixed boundary in z

newton          off                         # forces between local and ghost
                                            # atoms are computed in each
					     # processor without communication

processors      * * 1                       # processor grid

comm_modify     vel yes                     # communicate velocities for ghost atoms

read_data       atom_ch.in	             # read atom.in file which defines domain size
Reading data file ...
  orthogonal box = (0 0 0) to (6e-05 6e-05 6e-05)
  4 by 4 by 1 MPI processor grid
  reading atoms ...
  150 atoms
  read_data CPU = 0.044 seconds
                                            # and initial atoms


#--------------------Microbes and Functional Groups-------------------------#

group           CROSS1   type 1               # assign type 1,2 atoms to CROSS group
50 atoms in group CROSS1
group           CROSS2   type 2
50 atoms in group CROSS2
group		CHEATER  type 3
50 atoms in group CHEATER
group           dead     type 4
0 atoms in group dead

neighbor        5e-7 bin                   # setting neighbour skin distance and style

neigh_modify    check yes                  # rebuild neighbour list if any atom
                                           # had moved more than half the skin distance


#--------------------------Mesh Grid and Substrates--------------------------#

# defining grid sytle, substrate names, and grid size
grid_style      nufeb/chemostat 3 sub metab1 metab2 5e-6

# set diffusion boundary conditions and initial concentrations (liquid:kg/m3)
grid_modify     set sub      pp pp nd  1.8e-4
No /omp style for force computation currently active
grid_modify     set metab1   pp pp nd  1e-4
No /omp style for force computation currently active
grid_modify     set metab2   pp pp nd  1e-4
No /omp style for force computation currently active


#--------------------------Biological Processes-------------------------------#

# heterotrophs growth
fix growth_cross1 CROSS1 nufeb/growth/cross1 sub 3.5e-5 metab2 4e-3 metab1 growth 0.009 yield 0.6 decay 2.6e-6 metab1_exp 20

fix growth_cross2 CROSS2 nufeb/growth/cross2 sub 3.5e-5 metab1 4e-3 metab2 growth 0.009 yield 0.6 decay 2.6e-6 metab2_exp 20

fix growth_cheater CHEATER nufeb/growth/cheater sub 3.5e-5 metab1 1e-3 metab2 1e-3 growth 0.009 yield 0.6 decay 2.6e-6
# heterotrophs division, division diameter: 1.36e-6
fix div1 CROSS1 nufeb/division/coccus 1.36e-6 107
fix div2 CROSS2 nufeb/division/coccus 1.36e-6 122
fix div3 CHEATER nufeb/division/coccus 1.36e-6 145

fix death1 CROSS1 nufeb/death/diameter dead 5.43e-7
fix death2 CROSS2 nufeb/death/diameter dead 5.43e-7
fix death3 CHEATER nufeb/death/diameter dead 5.43e-7

#---------------------------Physical Processes--------------------------------#

pair_style  gran/hooke/history 1e-4 NULL 1e-5 NULL 0.0 0    # pairwise interaction
pair_coeff  * *                                             # between atoms

# pairwise interaction between z-wall and atoms
fix wall all wall/gran hooke/history 1e-3 NULL 1e-4 NULL 0 0 zplane 0.0 1e-04

fix vis all viscous 1e-5                                    # viscous damping force

fix grav all gravity 9.81 vector 0.0 0.0 -1.0

fix nve all nve/limit 1e-7                                  # NVE integration with
                                                            # maximum distance limit


#---------------------------Post-Physical Processes---------------------------#

fix coeff_sub all nufeb/diffusion_coeff sub ratio 0.8       # defining diffusion coeff in the biofilm
fix coeff_metab1 all nufeb/diffusion_coeff metab1 ratio 0.8    # region is 80% of the value in liquid
fix coeff_metab2 all nufeb/diffusion_coeff metab2 ratio 0.8

#---------------------------Chemical Processes---------------------------------#

fix diff_sub all nufeb/diffusion_reaction sub 1e-9        # diffusion reaction for updating
fix diff_metab1 all nufeb/diffusion_reaction metab1 4e-9     # distribusion of substrate concentration
fix diff_metab2 all nufeb/diffusion_reaction metab2 4e-9

#--------------------------Computations and Outputs----------------------------#

variable mass equal "mass(all)"                             # total mass
variable ncross1 equal "count(CROSS1)"                      # total # of CROSS1
variable ncross2 equal "count(CROSS2)"                      # total # of CROSS2
variable ncheater equal "count(CHEATER)"
variable ndead equal "count(dead)"

shell mkdir vtk_NEPS_ch                                            # dump vtk files to /vtk folder
dump du1 all vtk 10 vtk_NEPS_ch/dump*.vtu id type diameter         # require build NUFEB with vtk option
dump du2 all grid/vtk 10 vtk_NEPS_ch/dump_%_*.vti con rea den gro

#dump du3 all movie 10 movie.avi type diameter view 80 60    # dump video
#dump_modify du3 acolor 1 blue acolor 2 lightgrey framerate 10


                                                            # dump hdf5 files to /hdf5 folder
#shell mkdir hdf5                                           # require build NUFEB with hdf5 option
#dump du3 all nufeb/hdf5 10 dump.h5 id type x y z vx vy vz fx fy fz radius conc reac

thermo_style custom step cpu atoms v_ncross1 v_ncross2 v_ncheater v_ndead v_mass     # screen and log outputs
thermo 1
thermo_modify   lost ignore

#-----------------------------------Run----------------------------------------#

# issue run command, define timesteps for physical (pairdt) and chemical (diffdt) processes
run_style nufeb diffdt 1e-4 difftol 1e-6 pairdt 1e-2 pairtol 1 pairmax 1000 diffmax 5000

timestep 12000                                               # define biological timesteps (1000s)

run 320                                                    # growing biofilm for 900x1000s
Generated 0 of 6 mixed pair_coeff terms from geometric mixing rule
Last active /omp style is pair_style gran/hooke/history/omp
Neighbor list info ...
  update every 1 steps, delay 10 steps, check yes
  max neighbors/atom: 2000, page size: 100000
  master list distance cutoff = 2.49e-06
  ghost atom cutoff = 2.49e-06
  binsize = 1.245e-06, bins = 49 49 49
  1 neighbor lists, perpetual/occasional/extra = 1 0 0
  (1) pair gran/hooke/history/omp, perpetual
      attributes: half, newton off, size, history, omp
      pair build: half/size/bin/newtoff/omp
      stencil: full/bin/3d
      bin: standard
Per MPI rank memory allocation (min/avg/max) = 11.02 | 11.02 | 11.02 Mbytes
   Step          CPU          Atoms      v_ncross1      v_ncross2      v_ncheater      v_ndead         v_mass    
         0   0                    150   50             50             50             0              1.3295396e-13
         1   0.39961903           273   96             91             86             0              1.9616795e-13
         2   0.76177864           433   148            149            136            0              2.2355765e-13
         3   1.078568             539   174            193            172            0              2.4444288e-13
         4   1.3653062            582   187            208            187            0              2.6297614e-13
         5   1.5831634            624   200            225            199            0              2.8020913e-13
         6   1.7386705            661   216            238            207            0              2.9625435e-13
         7   1.8675779            697   223            254            220            0              3.1145802e-13
         8   1.9722923            725   230            262            233            0              3.2576203e-13
         9   2.1012152            752   235            270            247            0              3.3948311e-13
        10   2.2315984            791   249            284            258            0              3.5260254e-13
        11   2.3392244            824   260            289            275            0              3.6501514e-13
        12   2.4531945            857   268            298            291            0              3.7680124e-13
        13   2.5409446            889   277            307            305            0              3.8801107e-13
        14   2.6432076            910   282            313            315            0              3.9861954e-13
        15   2.7412021            939   291            323            325            0              4.088494e-13 
        16   2.8436071            958   297            328            333            0              4.1861002e-13
        17   2.9184689            992   309            336            347            0              4.2789531e-13
        18   2.9958336           1017   314            345            358            0              4.3665667e-13
        19   3.0854773           1045   322            348            375            0              4.4512915e-13
        20   3.184578            1071   323            357            391            0              4.5325039e-13
        21   3.2584722           1088   327            358            403            0              4.6098722e-13
        22   3.3284315           1104   331            363            410            0              4.6840684e-13
        23   3.4036094           1123   334            367            422            0              4.7553902e-13
        24   3.471598            1145   336            372            437            0              4.82437e-13  
        25   3.5401837           1166   340            375            451            0              4.8905286e-13
        26   3.6141523           1185   345            376            464            0              4.9535639e-13
        27   3.6824543           1194   347            377            470            0              5.0151621e-13
        28   3.7750758           1210   352            377            481            0              5.074735e-13 
        29   3.8459797           1227   357            377            493            0              5.1313709e-13
        30   12.43644            1243   361            378            504            0              5.1836752e-13
        31   12.494781           1260   362            380            518            0              5.2341178e-13
        32   12.54697            1276   363            382            531            0              5.2825702e-13
        33   12.6081             1286   365            384            537            0              5.3276706e-13
        34   12.65928            1308   374            385            549            0              5.3715281e-13
        35   12.700128           1329   378            387            564            0              5.4140478e-13
        36   12.750814           1342   382            389            571            0              5.454358e-13 
        37   12.802443           1354   384            391            579            0              5.4930341e-13
        38   12.84865            1361   388            391            582            0              5.5308658e-13
        39   12.881152           1373   391            391            591            0              5.5657244e-13
        40   12.95136            1383   393            392            598            0              5.5986219e-13
        41   13.001961           1387   394            393            600            0              5.6299742e-13
        42   13.056895           1398   395            394            609            0              5.6597854e-13
        43   13.100477           1412   395            395            622            0              5.6882795e-13
        44   13.150141           1426   399            397            630            0              5.7151175e-13
        45   13.198603           1440   400            399            641            0              5.73972e-13  
        46   13.246173           1454   402            399            653            0              5.7636886e-13
        47   13.283717           1464   403            401            660            0              5.7866902e-13
        48   13.318365           1474   405            403            666            0              5.8084519e-13
        49   13.352816           1482   406            403            673            0              5.8299311e-13
        50   13.405574           1491   408            405            678            0              5.8504961e-13
        51   13.435595           1497   409            405            683            0              5.8695785e-13
        52   13.466194           1504   411            406            687            0              5.8876938e-13
        53   13.497707           1511   412            406            693            0              5.9048925e-13
        54   13.528033           1518   412            406            700            0              5.9213993e-13
        55   13.558303           1524   414            407            703            0              5.937012e-13 
        56   13.600105           1531   416            407            708            0              5.9517615e-13
        57   13.638974           1535   417            407            709            2              5.9663818e-13
        58   13.670751           1542   417            408            714            3              5.9803232e-13
        59   13.708975           1547   418            408            718            3              5.9932532e-13
        60   13.769652           1552   419            408            721            4              6.0061719e-13
        61   13.813335           1561   420            408            726            7              6.0185697e-13
        62   13.849931           1565   421            409            725            10             6.0309906e-13
        63   13.885792           1570   422            409            722            17             6.0430699e-13
        64   13.919615           1579   423            409            725            22             6.0546363e-13
        65   13.950101           1592   425            410            724            33             6.0654262e-13
        66   13.986783           1595   425            410            719            41             6.0751257e-13
        67   14.020164           1598   426            410            714            48             6.0851121e-13
        68   14.054868           1604   428            410            712            54             6.095217e-13 
        69   14.090717           1615   431            410            712            62             6.1052127e-13
        70   14.166612           1625   434            410            713            68             6.1150177e-13
        71   14.207483           1634   434            410            713            77             6.1247016e-13
        72   14.242202           1637   434            410            709            84             6.1344986e-13
        73   14.273641           1639   434            410            703            92             6.1439591e-13
        74   14.306216           1641   434            410            699            98             6.153245e-13 
        75   14.341677           1648   436            410            698            104            6.1622962e-13
        76   14.376944           1654   437            410            699            108            6.1714831e-13
        77   14.410955           1660   437            410            702            111            6.180671e-13 
        78   14.442557           1669   438            410            700            121            6.1897258e-13
        79   14.477184           1671   439            410            697            125            6.1986736e-13
        80   14.529048           1674   439            410            698            127            6.2076903e-13
        81   14.559572           1678   439            410            699            130            6.2164739e-13
        82   14.593535           1680   439            410            697            134            6.2250946e-13
        83   14.624913           1685   440            410            694            141            6.2337232e-13
        84   14.655169           1689   440            410            693            146            6.2422531e-13
        85   14.682998           1695   440            410            695            150            6.2504757e-13
        86   14.713523           1697   440            410            696            151            6.258555e-13 
        87   14.741298           1704   442            410            698            154            6.2665714e-13
        88   14.770357           1711   443            410            702            156            6.2742984e-13
        89   14.799911           1718   444            410            703            161            6.2820651e-13
        90   14.855016           1724   445            410            706            163            6.2898005e-13
        91   14.883434           1726   446            410            707            163            6.2973413e-13
        92   14.912372           1729   446            410            709            164            6.3047542e-13
        93   14.940737           1734   448            410            711            165            6.3120342e-13
        94   14.967428           1739   448            410            714            167            6.3192175e-13
        95   15.0136             1741   448            410            714            169            6.3262566e-13
        96   15.056303           1745   450            410            711            174            6.3340243e-13
        97   15.093739           1751   450            410            715            176            6.3416832e-13
        98   15.125372           1755   450            410            717            178            6.348733e-13 
        99   15.15921            1761   451            410            722            178            6.3556752e-13
       100   15.217459           1763   451            410            721            181            6.3624949e-13
       101   15.254045           1765   452            410            722            181            6.3690329e-13
       102   15.293812           1769   453            410            724            182            6.3756293e-13
       103   15.334133           1774   455            410            726            183            6.3823114e-13
       104   15.375215           1782   456            410            730            186            6.3889836e-13
       105   15.409199           1783   456            410            729            188            6.3947094e-13
       106   15.44657            1788   456            410            729            193            6.4005644e-13
       107   15.500392           1792   456            411            727            198            6.4066425e-13
       108   15.52109            1795   456            411            728            200            6.4135067e-13
       109   15.560193           1798   457            411            728            202            6.4200678e-13
       110   15.618466           1800   457            411            728            204            6.4267681e-13
       111   15.657557           1803   457            411            728            207            6.4335524e-13
       112   15.695759           1809   457            411            733            208            6.4403543e-13
       113   15.715401           1816   458            411            735            212            6.4471223e-13
       114   15.751303           1820   458            411            737            214            6.4536517e-13
       115   15.774475           1823   458            411            740            214            6.4602315e-13
       116   15.809449           1823   458            411            739            215            6.4665674e-13
       117   15.843823           1827   459            411            738            219            6.4729007e-13
       118   15.87712            1830   459            411            740            220            6.4792199e-13
       119   15.909153           1836   460            411            743            222            6.4854821e-13
       120   16.43208            1840   460            411            744            225            6.4916715e-13
       121   16.475537           1841   460            411            743            227            6.4977608e-13
       122   16.511339           1843   461            411            743            228            6.5037142e-13
       123   16.535942           1849   461            411            748            229            6.5095438e-13
       124   16.564818           1849   461            411            748            229            6.5151767e-13
       125   16.593063           1850   461            411            749            229            6.5206562e-13
       126   16.620141           1850   461            411            747            231            6.5259753e-13
       127   16.641054           1853   461            411            749            232            6.531162e-13 
       128   16.667145           1858   461            411            753            233            6.5361671e-13
       129   16.687957           1860   461            411            752            236            6.5409648e-13
       130   16.73844            1865   461            411            754            239            6.5456201e-13
       131   16.762461           1868   461            411            754            242            6.5501939e-13
       132   16.78179            1873   461            411            758            243            6.5546019e-13
       133   16.803461           1876   461            411            756            248            6.558742e-13 
       134   16.825141           1876   461            411            753            251            6.5628339e-13
       135   16.857638           1880   461            411            757            251            6.5668329e-13
       136   16.888946           1881   461            411            755            254            6.5710419e-13
       137   16.916009           1883   461            411            753            258            6.5750946e-13
       138   16.941526           1885   461            411            754            259            6.5791279e-13
       139   16.965455           1885   461            411            753            260            6.5830513e-13
       140   17.006519           1887   462            411            752            262            6.586866e-13 
       141   17.029805           1891   462            411            756            262            6.5905921e-13
       142   17.053012           1892   462            411            757            262            6.5941975e-13
       143   17.076522           1893   462            411            758            262            6.5977082e-13
       144   17.099455           1895   462            411            760            262            6.6010709e-13
       145   17.122534           1898   462            411            761            264            6.6043322e-13
       146   17.145416           1904   462            411            767            264            6.6075329e-13
       147   17.167456           1907   462            411            770            264            6.6106228e-13
       148   17.190148           1907   462            411            770            264            6.6135749e-13
       149   17.212828           1912   462            411            775            264            6.6164521e-13
       150   17.254487           1918   463            411            780            264            6.6192646e-13
       151   17.276845           1919   463            411            780            265            6.6219742e-13
       152   17.299045           1921   463            411            782            265            6.6246689e-13
       153   17.321003           1921   463            411            782            265            6.6272989e-13
       154   17.342677           1922   463            411            783            265            6.6298659e-13
       155   17.364118           1922   463            411            783            265            6.6323715e-13
       156   17.382783           1923   463            411            784            265            6.6348169e-13
       157   17.403137           1924   463            411            784            266            6.6370598e-13
       158   17.42387            1925   463            411            784            267            6.6392795e-13
       159   17.444489           1925   463            411            784            267            6.6414698e-13
       160   17.498749           1926   463            411            785            267            6.6436115e-13
       161   17.519674           1931   463            411            789            268            6.6457328e-13
       162   17.539634           1931   463            411            789            268            6.6478239e-13
       163   17.559129           1931   463            411            789            268            6.6498646e-13
       164   17.577083           1934   463            411            791            269            6.6518547e-13
       165   17.595057           1936   463            411            793            269            6.6537897e-13
       166   17.613772           1938   463            411            795            269            6.655669e-13 
       167   17.631686           1938   463            411            795            269            6.6575343e-13
       168   17.649401           1939   463            411            796            269            6.6593524e-13
       169   17.666788           1940   463            411            797            269            6.6611211e-13
       170   17.701712           1940   463            411            797            269            6.6628397e-13
       171   17.719301           1942   463            411            799            269            6.6645291e-13
       172   17.735671           1945   463            411            802            269            6.6661995e-13
       173   17.756898           1945   463            411            802            269            6.6678092e-13
       174   17.772346           1945   463            411            802            269            6.6694583e-13
       175   17.787195           1947   463            411            804            269            6.6710456e-13
       176   17.801672           1948   463            411            804            270            6.6725725e-13
       177   17.815753           1948   463            411            803            271            6.6740584e-13
       178   17.829616           1948   463            411            802            272            6.6755044e-13
       179   17.843214           1949   463            411            803            272            6.6769108e-13
       180   17.876426           1949   463            411            803            272            6.6782603e-13
       181   17.889384           1951   463            411            804            273            6.6795795e-13
       182   17.90215            1952   463            411            805            273            6.6808624e-13
       183   17.916386           1953   463            411            806            273            6.6820907e-13
       184   17.928572           1955   463            411            807            274            6.6832337e-13
       185   17.94062            1955   463            411            807            274            6.6843478e-13
       186   17.952424           1956   463            411            808            274            6.6854145e-13
       187   17.966514           1958   464            411            808            275            6.6864422e-13
       188   17.977854           1959   464            411            808            276            6.6874408e-13
       189   17.989014           1959   464            411            808            276            6.6884144e-13
       190   18.024903           1962   464            411            811            276            6.6893382e-13
       191   18.035766           1963   464            411            812            276            6.6902215e-13
       192   18.046421           1963   464            411            812            276            6.6910655e-13
       193   18.057289           1964   464            411            813            276            6.6918715e-13
       194   18.070378           1964   464            411            812            277            6.6926478e-13
       195   18.080432           1965   464            411            813            277            6.6934257e-13
       196   18.090304           1965   464            411            813            277            6.6941691e-13
       197   18.101156           1966   464            411            813            278            6.6948781e-13
       198   18.111467           1968   464            411            815            278            6.6955801e-13
       199   18.120908           1968   464            411            815            278            6.6962523e-13
       200   18.147509           1970   464            411            817            278            6.696893e-13 
       201   18.15678            1970   464            411            816            279            6.6975026e-13
       202   18.165911           1970   464            411            816            279            6.6981007e-13
       203   18.174912           1970   464            411            816            279            6.6986693e-13
       204   18.183824           1971   464            411            817            279            6.6992095e-13
       205   18.192585           1972   464            411            818            279            6.6997226e-13
       206   18.203473           1972   464            411            818            279            6.7002097e-13
       207   18.21204            1973   464            411            818            280            6.7006561e-13
       208   18.222032           1973   464            411            818            280            6.7010982e-13
       209   18.2304             1973   464            411            818            280            6.7015183e-13
       210   18.257403           1973   464            411            818            280            6.7019179e-13
       211   18.266373           1973   464            411            818            280            6.7022974e-13
       212   18.274724           1973   464            411            818            280            6.7026577e-13
       213   18.28705            1973   464            411            818            280            6.7029996e-13
       214   18.295006           1973   464            411            818            280            6.703302e-13 
       215   18.30278            1973   464            411            818            280            6.7035901e-13
       216   18.310458           1973   464            411            818            280            6.7038643e-13
       217   18.318056           1973   464            411            818            280            6.7041252e-13
       218   18.325535           1974   464            411            819            280            6.7043733e-13
       219   18.332974           1975   464            411            820            280            6.7046091e-13
       220   18.360798           1975   464            411            820            280            6.7048332e-13
       221   18.368099           1975   464            411            820            280            6.705046e-13 
       222   18.375286           1975   464            411            820            280            6.7052481e-13
       223   18.38241            1975   464            411            820            280            6.70544e-13  
       224   18.389458           1975   464            411            819            281            6.7056221e-13
       225   18.401058           1975   464            411            819            281            6.7058128e-13
       226   18.408004           1975   464            411            819            281            6.7059842e-13
       227   18.414751           1975   464            411            819            281            6.7061472e-13
       228   18.421406           1975   464            411            818            282            6.7063024e-13
       229   18.428001           1975   464            411            817            283            6.7064684e-13
       230   18.459354           1975   464            411            817            283            6.7066443e-13
       231   18.465876           1975   464            411            817            283            6.7068116e-13
       232   18.472315           1976   464            411            818            283            6.7069707e-13
       233   18.478699           1976   464            411            818            283            6.7071219e-13
       234   18.485029           1977   464            411            819            283            6.7072656e-13
       235   18.491286           1977   464            411            819            283            6.7074021e-13
       236   18.497463           1978   464            411            820            283            6.7075317e-13
       237   18.511822           1979   464            411            821            283            6.7076548e-13
       238   18.51799            1979   464            411            820            284            6.7077407e-13
       239   18.530158           1979   464            411            820            284            6.7078416e-13
       240   18.561419           1979   464            411            820            284            6.7079628e-13
       241   18.567276           1980   464            411            821            284            6.7080559e-13
       242   18.572996           1980   464            411            820            285            6.7081448e-13
       243   18.582768           1980   464            411            820            285            6.7082483e-13
       244   18.588469           1981   464            411            821            285            6.708344e-13 
       245   18.600048           1982   464            412            821            285            6.708436e-13 
       246   18.611383           1982   464            412            821            285            6.7085477e-13
       247   18.616702           1982   464            412            821            285            6.7086322e-13
       248   18.62195            1982   464            412            821            285            6.708713e-13 
       249   18.627179           1982   464            412            820            286            6.7087905e-13
       250   18.677316           1982   464            412            820            286            6.7088827e-13
       251   18.706904           1982   464            412            820            286            6.7096124e-13
       252   18.730751           1982   464            412            820            286            6.7102917e-13
       253   18.758982           1983   464            412            821            286            6.7110049e-13
       254   18.779811           1983   464            412            821            286            6.7114336e-13
       255   18.802205           1983   464            412            821            286            6.7119043e-13
       256   18.825177           1983   464            412            821            286            6.7124167e-13
       257   18.848311           1983   464            412            821            286            6.7129984e-13
       258   18.872202           1985   464            412            823            286            6.7136212e-13
       259   18.89622            1985   464            412            823            286            6.7142942e-13
       260   18.938397           1985   464            412            823            286            6.715021e-13 
       261   18.963365           1985   464            412            823            286            6.7158049e-13
       262   18.988262           1985   464            412            823            286            6.7166489e-13
       263   19.013246           1986   464            412            824            286            6.7175553e-13
       264   19.038343           1986   464            412            824            286            6.7185259e-13
       265   19.06347            1987   464            412            825            286            6.7195615e-13
       266   19.088517           1987   464            412            825            286            6.7206624e-13
       267   19.114668           1987   464            412            825            286            6.7218277e-13
       268   19.139835           1987   464            412            825            286            6.7230263e-13
       269   19.164421           1988   464            412            826            286            6.7242875e-13
       270   19.20672            1989   464            412            827            286            6.7256078e-13
       271   19.232504           1989   464            412            827            286            6.7269665e-13
       272   19.256188           1990   464            412            828            286            6.7283771e-13
       273   19.279496           1991   464            412            829            286            6.7298341e-13
       274   19.302322           1991   464            412            829            286            6.7313317e-13
       275   19.324866           1991   464            412            829            286            6.7328638e-13
       276   19.347046           1992   464            412            830            286            6.7344241e-13
       277   19.368896           1992   464            412            830            286            6.7360063e-13
       278   19.385391           1993   464            412            831            286            6.7375936e-13
       279   19.406294           1994   464            413            831            286            6.7391052e-13
       280   19.448419           1994   464            413            831            286            6.7406373e-13
       281   19.469154           1995   464            413            832            286            6.7421798e-13
       282   19.489515           1997   464            413            834            286            6.7437264e-13
       283   19.509434           1998   464            413            835            286            6.7452715e-13
       284   19.528965           1999   464            413            836            286            6.7468281e-13
       285   19.540354           2001   464            413            838            286            6.7483731e-13
       286   19.55901            2001   464            413            838            286            6.7498073e-13
       287   19.5777             2001   464            413            838            286            6.7512351e-13
       288   19.596352           2002   464            413            839            286            6.7525583e-13
       289   19.6148             2002   464            413            839            286            6.7539044e-13
       290   19.654179           2003   464            413            840            286            6.7552431e-13
       291   19.67021            2004   464            413            841            286            6.756559e-13 
       292   19.687453           2004   464            413            841            286            6.7577342e-13
       293   19.705071           2006   464            413            843            286            6.7589097e-13
       294   19.723596           2006   464            413            843            286            6.760078e-13 
       295   19.740583           2006   464            413            843            286            6.7612839e-13
       296   19.757364           2007   464            413            844            286            6.7624729e-13
       297   19.802839           2008   464            413            845            286            6.763641e-13 
       298   19.850859           2008   464            413            845            286            6.7660638e-13
       299   19.900301           2009   464            413            846            286            6.7688027e-13
       300   19.982219           2009   464            413            846            286            6.7721887e-13
       301   20.020641           2011   464            413            848            286            6.7764683e-13
       302   20.073061           2013   464            413            850            286            6.7796668e-13
       303   20.134873           2014   464            413            851            286            6.7839515e-13
       304   20.216336           2018   464            413            855            286            6.7898173e-13
       305   20.314485           2021   464            413            858            286            6.7988756e-13
       306   20.40202            2028   464            413            865            286            6.8104189e-13
       307   20.511001           2034   464            413            871            286            6.8229704e-13
       308   20.624281           2037   464            413            874            286            6.8387675e-13
       309   20.731023           2047   464            413            884            286            6.8583502e-13
       310   20.875474           2056   464            413            893            286            6.8805726e-13
       311   20.982069           2064   464            413            901            286            6.9065201e-13
       312   21.116819           2077   464            413            914            286            6.9350605e-13
       313   21.224932           2091   464            413            928            286            6.9684098e-13
       314   21.3355             2102   464            413            939            286            7.0020954e-13
       315   21.46213            2113   464            413            950            286            7.0373264e-13
       316   21.583093           2132   464            413            969            286            7.0755786e-13
       317   21.705903           2148   464            413            985            286            7.1156838e-13
       318   21.828              2161   464            413            998            286            7.1585202e-13
       319   21.953368           2183   464            413            1020           286            7.2031266e-13
       320   22.071607           2203   464            413            1040           286            7.2479583e-13
Loop time of 22.0717 on 16 procs for 320 steps with 2203 atoms

91.9% CPU use with 16 MPI tasks x 1 OpenMP threads

MPI task timing breakdown:
Section |  min time  |  avg time  |  max time  |%varavg| %total
---------------------------------------------------------------
Pair    | 0.0149     | 0.025779   | 0.050881   |   6.4 |  0.12
Neigh   | 0.013416   | 0.030365   | 0.062255   |   8.4 |  0.14
Comm    | 3.0991     | 3.5686     | 3.8        |   9.0 | 16.17
Output  | 9.7194     | 9.7195     | 9.7196     |   0.0 | 44.04
Modify  | 7.4085     | 7.6138     | 8.0849     |   6.0 | 34.50
Other   |            | 1.114      |            |       |  5.05

Nlocal:        137.688 ave         283 max          62 min
Histogram: 4 1 4 2 0 1 2 0 1 1
Nghost:        107.688 ave         236 max          29 min
Histogram: 2 4 1 3 1 2 0 1 1 1
Neighs:        475.062 ave        1271 max         149 min
Histogram: 6 3 2 0 1 0 2 0 1 1

Total # of neighbors = 7601
Ave neighs/atom = 3.4502951
Neighbor list builds = 360
Dangerous builds = 8

Total wall time: 0:00:23
