LAMMPS (23 Jun 2022 - Update 4)
  using 1 OpenMP thread(s) per MPI task
package omp 0
using multi-threaded neighbor list subroutines
#-----------------------------------------------------------------------------#
#                NUFEB Simulation: Heterotrophic Biofilm Growth               #
#-----------------------------------------------------------------------------#


#-----------------------------System Settings---------------------------------#

units si                                    # using si units (m, s, kg)
atom_style      coccus                      # using nufeb coccus atom style
atom_modify     map array sort 10 0         # map array - find atoms using indices
		                            # sort every 10

boundary        pp pp ff                    # periodic boundaries in x and y
                                            # fixed boundary in z

newton          off                         # forces between local and ghost
                                            # atoms are computed in each
					     # processor without communication

processors      * * 1                       # processor grid

comm_modify     vel yes                     # communicate velocities for ghost atoms

read_data       atom_ch.in	             # read atom.in file which defines domain size
Reading data file ...
  orthogonal box = (0 0 0) to (6e-05 6e-05 6e-05)
  4 by 4 by 1 MPI processor grid
  reading atoms ...
  150 atoms
  read_data CPU = 0.028 seconds
                                            # and initial atoms


#--------------------Microbes and Functional Groups-------------------------#

group           CROSS1   type 1               # assign type 1,2 atoms to CROSS group
50 atoms in group CROSS1
group           CROSS2   type 2
50 atoms in group CROSS2
group		CHEATER  type 3
50 atoms in group CHEATER
group           dead     type 4
0 atoms in group dead

neighbor        5e-7 bin                   # setting neighbour skin distance and style

neigh_modify    check yes                  # rebuild neighbour list if any atom
                                           # had moved more than half the skin distance


#--------------------------Mesh Grid and Substrates--------------------------#

# defining grid sytle, substrate names, and grid size
grid_style      nufeb/chemostat 3 sub metab1 metab2 5e-6

# set diffusion boundary conditions and initial concentrations (liquid:kg/m3)
grid_modify     set sub      pp pp nd  1.8e-4
No /omp style for force computation currently active
grid_modify     set metab1   pp pp nd  1e-4
No /omp style for force computation currently active
grid_modify     set metab2   pp pp nd  1e-4
No /omp style for force computation currently active


#--------------------------Biological Processes-------------------------------#

# heterotrophs growth
fix growth_cross1 CROSS1 nufeb/growth/cross1 sub 3.5e-5 metab2 4e-3 metab1 growth 0.009 yield 0.6 decay 2.6e-6 metab1_exp 20

fix growth_cross2 CROSS2 nufeb/growth/cross2 sub 3.5e-5 metab1 4e-3 metab2 growth 0.009 yield 0.6 decay 2.6e-6 metab2_exp 20

fix growth_cheater CHEATER nufeb/growth/cheater sub 3.5e-5 metab1 1e-3 metab2 1e-3 growth 0.009 yield 0.6 decay 2.6e-6
# heterotrophs division, division diameter: 1.36e-6
fix div1 CROSS1 nufeb/division/coccus 1.36e-6 464
fix div2 CROSS2 nufeb/division/coccus 1.36e-6 1550
fix div3 CHEATER nufeb/division/coccus 1.36e-6 3358

fix death1 CROSS1 nufeb/death/diameter dead 5.43e-7
fix death2 CROSS2 nufeb/death/diameter dead 5.43e-7
fix death3 CHEATER nufeb/death/diameter dead 5.43e-7

#---------------------------Physical Processes--------------------------------#

pair_style  gran/hooke/history 1e-4 NULL 1e-5 NULL 0.0 0    # pairwise interaction
pair_coeff  * *                                             # between atoms

# pairwise interaction between z-wall and atoms
fix wall all wall/gran hooke/history 1e-3 NULL 1e-4 NULL 0 0 zplane 0.0 1e-04

fix vis all viscous 1e-5                                    # viscous damping force

fix grav all gravity 9.81 vector 0.0 0.0 -1.0

fix nve all nve/limit 1e-7                                  # NVE integration with
                                                            # maximum distance limit


#---------------------------Post-Physical Processes---------------------------#

fix coeff_sub all nufeb/diffusion_coeff sub ratio 0.8       # defining diffusion coeff in the biofilm
fix coeff_metab1 all nufeb/diffusion_coeff metab1 ratio 0.8    # region is 80% of the value in liquid
fix coeff_metab2 all nufeb/diffusion_coeff metab2 ratio 0.8

#---------------------------Chemical Processes---------------------------------#

fix diff_sub all nufeb/diffusion_reaction sub 1e-9        # diffusion reaction for updating
fix diff_metab1 all nufeb/diffusion_reaction metab1 4e-9     # distribusion of substrate concentration
fix diff_metab2 all nufeb/diffusion_reaction metab2 4e-9

#--------------------------Computations and Outputs----------------------------#

variable mass equal "mass(all)"                             # total mass
variable ncross1 equal "count(CROSS1)"                      # total # of CROSS1
variable ncross2 equal "count(CROSS2)"                      # total # of CROSS2
variable ncheater equal "count(CHEATER)"
variable ndead equal "count(dead)"

shell mkdir vtk_NEPS_ch                                            # dump vtk files to /vtk folder
dump du1 all vtk 10 vtk_NEPS_ch/dump*.vtu id type diameter         # require build NUFEB with vtk option
dump du2 all grid/vtk 10 vtk_NEPS_ch/dump_%_*.vti con rea den gro

#dump du3 all movie 10 movie.avi type diameter view 80 60    # dump video
#dump_modify du3 acolor 1 blue acolor 2 lightgrey framerate 10


                                                            # dump hdf5 files to /hdf5 folder
#shell mkdir hdf5                                           # require build NUFEB with hdf5 option
#dump du3 all nufeb/hdf5 10 dump.h5 id type x y z vx vy vz fx fy fz radius conc reac

thermo_style custom step cpu atoms v_ncross1 v_ncross2 v_ncheater v_ndead v_mass     # screen and log outputs
thermo 1
thermo_modify   lost ignore

#-----------------------------------Run----------------------------------------#

# issue run command, define timesteps for physical (pairdt) and chemical (diffdt) processes
run_style nufeb diffdt 1e-4 difftol 1e-6 pairdt 1e-2 pairtol 1 pairmax 1000 diffmax 5000

timestep 12000                                               # define biological timesteps (1000s)

run 320                                                    # growing biofilm for 900x1000s
Generated 0 of 6 mixed pair_coeff terms from geometric mixing rule
Last active /omp style is pair_style gran/hooke/history/omp
Neighbor list info ...
  update every 1 steps, delay 10 steps, check yes
  max neighbors/atom: 2000, page size: 100000
  master list distance cutoff = 2.49e-06
  ghost atom cutoff = 2.49e-06
  binsize = 1.245e-06, bins = 49 49 49
  1 neighbor lists, perpetual/occasional/extra = 1 0 0
  (1) pair gran/hooke/history/omp, perpetual
      attributes: half, newton off, size, history, omp
      pair build: half/size/bin/newtoff/omp
      stencil: full/bin/3d
      bin: standard
Per MPI rank memory allocation (min/avg/max) = 11.02 | 11.02 | 11.02 Mbytes
   Step          CPU          Atoms      v_ncross1      v_ncross2      v_ncheater      v_ndead         v_mass    
         0   0                    150   50             50             50             0              1.3295396e-13
         1   0.38483456           273   96             91             86             0              1.9616795e-13
         2   0.74822246           431   148            148            135            0              2.243033e-13 
         3   1.0450766            542   176            192            174            0              2.4610578e-13
         4   1.3402299            591   191            209            191            0              2.6521173e-13
         5   1.5417036            629   199            223            207            0              2.8293136e-13
         6   1.7174269            665   212            238            215            0              2.9958957e-13
         7   1.8405164            698   220            248            230            0              3.1543929e-13
         8   1.968967             737   231            263            243            0              3.3034478e-13
         9   2.0787284            775   244            269            262            0              3.4470812e-13
        10   2.2149436            813   256            281            276            0              3.5843723e-13
        11   2.3201089            844   262            293            289            0              3.7157896e-13
        12   2.4204806            880   270            303            307            0              3.8410446e-13
        13   2.5142467            909   280            308            321            0              3.9608754e-13
        14   2.6031433            933   288            309            336            0              4.0758437e-13
        15   2.7152958            955   294            315            346            0              4.185055e-13 
        16   2.8122893            976   300            321            355            0              4.2876573e-13
        17   2.8932325           1006   302            329            375            0              4.3844283e-13
        18   2.9777617           1035   311            336            388            0              4.4772253e-13
        19   3.0540337           1054   319            336            399            0              4.5661931e-13
        20   3.1365129           1078   320            344            414            0              4.6508743e-13
        21   3.1962261           1094   323            346            425            0              4.7280512e-13
        22   3.255417            1114   329            347            438            0              4.8009096e-13
        23   3.3119703           1134   334            349            451            0              4.869765e-13 
        24   3.3614121           1151   341            353            457            0              4.9355225e-13
        25   3.4159803           1178   341            357            480            0              4.9975615e-13
        26   3.4637736           1194   341            358            495            0              5.0572064e-13
        27   3.520618            1209   345            361            503            0              5.112261e-13 
        28   3.5630171           1224   350            364            510            0              5.1645224e-13
        29   3.6204069           1236   354            366            516            0              5.2133238e-13
        30   3.6790171           1254   360            367            527            0              5.2595662e-13
        31   3.7246934           1272   367            368            537            0              5.3035035e-13
        32   3.801053            1290   371            368            551            0              5.3449661e-13
        33   3.8586731           1309   373            371            565            0              5.3843534e-13
        34   3.9063478           1319   375            372            572            0              5.4211396e-13
        35   3.947429            1327   377            373            577            0              5.4559637e-13
        36   3.9958525           1338   381            375            582            0              5.4885775e-13
        37   4.039133            1352   384            379            589            0              5.5202668e-13
        38   4.0727951           1362   385            380            597            0              5.5505886e-13
        39   4.1117095           1374   387            380            607            0              5.5790504e-13
        40   9.8410738           1392   390            381            621            0              5.6062991e-13
        41   9.8864534           1402   394            382            626            0              5.6329029e-13
        42   9.9209904           1411   395            384            632            0              5.6566383e-13
        43   9.9519857           1422   401            386            635            0              5.678986e-13 
        44   9.9872134           1428   403            386            639            0              5.7000205e-13
        45   10.021142           1438   407            387            644            0              5.7200748e-13
        46   10.05928            1447   407            388            652            0              5.7394613e-13
        47   10.098883           1453   408            389            656            0              5.7579228e-13
        48   10.159653           1465   410            393            662            0              5.7757253e-13
        49   10.225282           1470   410            393            667            0              5.7951197e-13
        50   10.27997            1479   411            394            674            0              5.8146377e-13
        51   10.331602           1496   413            396            687            0              5.8328744e-13
        52   10.395038           1506   414            398            694            0              5.8507854e-13
        53   10.465699           1512   415            398            699            0              5.8690545e-13
        54   10.536107           1522   417            398            706            1              5.888893e-13 
        55   10.579512           1527   417            398            710            2              5.9089603e-13
        56   10.666631           1537   418            399            717            3              5.9284537e-13
        57   10.761693           1547   418            402            722            5              5.9493363e-13
        58   10.854814           1557   420            402            729            6              5.9718078e-13
        59   10.96568            1568   422            402            737            7              5.9942907e-13
        60   27.419907           1581   425            402            744            10             6.0194295e-13
        61   27.52567            1596   427            402            752            15             6.0462801e-13
        62   27.661498           1605   427            402            757            19             6.0752201e-13
        63   27.768064           1616   428            402            758            28             6.1082345e-13
        64   27.901125           1627   428            402            763            34             6.1427601e-13
        65   28.019011           1642   429            402            773            38             6.1802802e-13
        66   28.118829           1653   429            402            780            42             6.2194078e-13
        67   28.224834           1667   430            402            784            51             6.2591238e-13
        68   28.321273           1687   430            402            798            57             6.3000044e-13
        69   28.409099           1701   431            404            801            65             6.3413126e-13
        70   28.516365           1719   433            404            811            71             6.3824382e-13
        71   28.599345           1733   433            404            815            81             6.422707e-13 
        72   28.669934           1754   434            404            831            85             6.4625461e-13
        73   28.738546           1770   434            405            838            93             6.5016358e-13
        74   28.81826            1779   434            405            840            100            6.5396005e-13
        75   28.890988           1797   436            405            853            103            6.576426e-13 
        76   28.964438           1807   438            405            854            110            6.6129658e-13
        77   29.050506           1821   439            405            859            118            6.6488094e-13
        78   29.133248           1831   439            405            864            123            6.6855074e-13
        79   29.248334           1848   440            405            880            123            6.7209378e-13
        80   29.421145           1860   440            405            888            127            6.7587366e-13
        81   29.597858           1877   440            407            897            133            6.8007113e-13
        82   29.777657           1894   441            407            910            136            6.8472041e-13
        83   29.977029           1915   441            407            927            140            6.8988066e-13
        84   30.192589           1936   441            407            941            147            6.9564334e-13
        85   30.394887           1954   441            407            957            149            7.0189563e-13
        86   30.594131           1974   441            407            973            153            7.0853214e-13
        87   30.790906           2008   442            407            1001           158            7.1561938e-13
        88   30.970434           2026   442            408            1012           164            7.2290285e-13
        89   31.140569           2055   442            409            1039           165            7.3040457e-13
        90   31.319782           2079   442            409            1058           170            7.3798805e-13
        91   31.450861           2107   442            409            1080           176            7.4556327e-13
        92   31.563818           2136   442            409            1101           184            7.5293253e-13
        93   31.691408           2167   443            409            1128           187            7.6002799e-13
        94   31.82049            2186   443            410            1139           194            7.6706003e-13
        95   31.934762           2217   443            410            1168           196            7.7398564e-13
        96   32.073758           2245   444            410            1192           199            7.8077495e-13
        97   32.241229           2279   444            410            1221           204            7.8761621e-13
        98   32.455439           2307   444            410            1248           205            7.947429e-13 
        99   32.665003           2338   444            410            1277           207            8.0241606e-13
       100   32.895062           2369   444            410            1305           210            8.1022843e-13
       101   33.188727           2396   444            410            1329           213            8.1825991e-13
       102   33.478631           2424   444            410            1355           215            8.2737531e-13
       103   33.791537           2456   444            410            1381           221            8.3720812e-13
       104   34.077348           2492   444            410            1413           225            8.479922e-13 
       105   34.339387           2530   444            410            1450           226            8.5924083e-13
       106   34.596703           2569   444            410            1483           232            8.7069403e-13
       107   34.825694           2614   444            410            1522           238            8.8228114e-13
       108   35.042469           2656   444            410            1559           243            8.9373406e-13
       109   35.235736           2700   444            410            1594           252            9.0504839e-13
       110   35.470321           2742   444            410            1627           261            9.1630218e-13
       111   35.687372           2789   444            410            1670           265            9.2743515e-13
       112   35.915686           2831   444            410            1705           272            9.3856879e-13
       113   36.161539           2876   443            410            1746           277            9.4973252e-13
       114   36.472869           2926   442            410            1794           280            9.6104878e-13
       115   36.763287           2971   442            410            1834           285            9.7311204e-13
       116   37.097193           3019   442            410            1877           290            9.8541664e-13
       117   37.468626           3078   442            410            1933           293            9.9872549e-13
       118   37.839403           3133   442            410            1982           299            1.0127329e-12
       119   38.231918           3193   442            410            2040           301            1.0277008e-12
       120   38.614424           3256   441            410            2101           304            1.0439765e-12
       121   38.946712           3316   440            410            2158           308            1.0604601e-12
       122   39.299885           3388   439            410            2225           314            1.0770233e-12
       123   39.630741           3448   439            410            2284           315            1.0939008e-12
       124   39.945588           3527   439            410            2360           318            1.1109464e-12
       125   40.270666           3602   439            410            2432           321            1.127934e-12 
       126   40.626564           3674   439            410            2500           325            1.1451011e-12
       127   40.945379           3747   439            410            2566           332            1.1624204e-12
       128   41.348624           3814   439            410            2629           336            1.1797554e-12
       129   41.754097           3893   438            410            2703           342            1.1979221e-12
       130   42.149173           3960   436            410            2763           351            1.2165175e-12
       131   42.537768           4056   435            410            2854           357            1.2352852e-12
       132   42.916566           4134   434            410            2923           367            1.254313e-12 
       133   43.271589           4219   434            410            3005           370            1.273415e-12 
       134   43.5918             4300   434            410            3080           376            1.2921686e-12
       135   43.902382           4374   434            410            3152           378            1.3103774e-12
       136   44.210733           4450   434            410            3220           386            1.3279972e-12
       137   44.557237           4518   434            410            3280           394            1.3451285e-12
       138   44.948487           4596   434            410            3350           402            1.3624066e-12
       139   45.385083           4679   434            410            3430           405            1.3799498e-12
       140   45.858701           4767   431            410            3511           415            1.3987182e-12
       141   46.304257           4848   431            410            3588           419            1.4178112e-12
       142   46.748015           4936   430            410            3674           422            1.4387319e-12
       143   47.185572           5031   430            410            3765           426            1.4608421e-12
       144   47.641005           5121   430            410            3849           432            1.4838598e-12
       145   48.094683           5218   430            410            3942           436            1.5074111e-12
       146   48.543104           5324   430            410            4039           445            1.5316483e-12
       147   48.980397           5432   429            410            4139           454            1.5559427e-12
       148   49.453389           5531   429            410            4230           462            1.5799806e-12
       149   49.919705           5639   429            410            4327           473            1.6041994e-12
       150   50.422414           5761   428            410            4438           485            1.6279812e-12
       151   50.938566           5862   428            410            4526           498            1.6523893e-12
       152   51.414515           5961   428            410            4618           505            1.6769515e-12
       153   51.911568           6104   428            410            4743           523            1.7026369e-12
       154   52.417455           6226   428            410            4848           540            1.7288332e-12
       155   52.926999           6340   428            410            4939           563            1.7558968e-12
       156   53.439162           6459   428            409            5043           579            1.7837086e-12
       157   53.924776           6591   426            409            5165           591            1.8119653e-12
       158   54.454048           6724   426            408            5280           610            1.8403545e-12
       159   54.976828           6843   426            407            5360           650            1.8684824e-12
       160   55.510754           6971   423            406            5462           680            1.89609e-12  
       161   56.036404           7104   423            406            5570           705            1.9235487e-12
       162   56.571719           7228   422            406            5658           742            1.9504912e-12
       163   57.118209           7366   422            405            5759           780            1.9771428e-12
       164   57.716783           7491   422            405            5855           809            2.0051312e-12
       165   58.296691           7620   422            405            5947           846            2.0332742e-12
       166   58.89433            7752   422            405            6040           885            2.0626443e-12
       167   59.506069           7880   418            405            6135           922            2.0933314e-12
       168   60.111578           8007   418            405            6225           959            2.1255944e-12
       169   60.721566           8157   417            404            6329           1007           2.1591181e-12
       170   61.337253           8309   416            403            6444           1046           2.1932241e-12
       171   61.936999           8451   416            402            6536           1097           2.2278881e-12
       172   62.5271             8607   416            402            6642           1147           2.2632526e-12
       173   63.147019           8762   415            402            6763           1182           2.2994401e-12
       174   63.799589           8932   415            401            6897           1219           2.3356882e-12
       175   64.44288            9089   415            401            7019           1254           2.37334e-12  
       176   65.12527            9272   414            401            7163           1294           2.412768e-12 
       177   65.761095           9475   413            400            7325           1337           2.4539286e-12
       178   66.400581           9674   413            398            7499           1364           2.4977146e-12
       179   67.049007           9877   413            398            7667           1399           2.5431956e-12
       180   67.774067          10074   412            398            7840           1424           2.5899838e-12
       181   68.450088          10272   410            398            7997           1467           2.6379654e-12
       182   69.170696          10480   409            398            8177           1496           2.6863376e-12
       183   69.882679          10702   408            398            8376           1520           2.7354935e-12
       184   70.649628          10938   407            398            8586           1547           2.7853053e-12
       185   71.440168          11168   405            398            8780           1585           2.8360434e-12
       186   72.2451            11413   403            397            8996           1617           2.8888091e-12
       187   73.067676          11646   403            397            9191           1655           2.9435733e-12
       188   73.929064          11933   402            397            9429           1705           3.0012989e-12
       189   74.87526           12181   400            397            9637           1747           3.0616573e-12
       190   75.961673          12416   398            397            9822           1799           3.1249543e-12
       191   77.021077          12710   396            397            10062          1855           3.1891608e-12
       192   78.027849          12993   395            397            10287          1914           3.2565324e-12
       193   79.07993           13239   395            397            10471          1976           3.3260196e-12
       194   80.255035          13547   393            397            10716          2041           3.399769e-12 
       195   81.380115          13857   393            397            10962          2105           3.4795051e-12
       196   82.577256          14208   393            396            11247          2172           3.5671379e-12
       197   83.95889           14542   393            396            11515          2238           3.6631296e-12
       198   85.49327           14910   391            396            11817          2306           3.7669874e-12
       199   87.167054          15306   390            396            12162          2358           3.8793051e-12
       200   89.13734           15717   389            396            12517          2415           4.0005364e-12
       201   91.135198          16177   389            396            12904          2488           4.1256484e-12
       202   93.394815          16622   389            395            13274          2564           4.2542806e-12
       203   96.007961          17083   386            395            13656          2646           4.3868432e-12
       204   98.829879          17547   385            395            14054          2713           4.5155387e-12
       205   101.75668          18040   385            394            14464          2797           4.6488271e-12
       206   104.53823          18479   384            394            14845          2856           4.7772056e-12
       207   107.50271          18967   383            394            15272          2918           4.9094273e-12
       208   110.47735          19503   380            393            15758          2972           5.0521022e-12
       209   113.46624          19957   378            393            16144          3042           5.1959417e-12
       210   116.52715          20473   376            392            16594          3111           5.3378205e-12
       211   119.60926          21020   375            392            17050          3203           5.4879319e-12
       212   122.70123          21547   373            391            17497          3286           5.6367547e-12
       213   125.79436          22110   372            390            17977          3371           5.7771399e-12
       214   128.82029          22651   370            389            18432          3460           5.930671e-12 
       215   131.85871          23274   369            388            18964          3553           6.0914728e-12
       216   134.94273          23872   366            387            19473          3646           6.2628526e-12
       217   137.96217          24497   366            387            20019          3725           6.4349422e-12
       218   141.02313          25157   361            385            20597          3814           6.6062612e-12
       219   144.045            25802   361            384            21130          3927           6.7737806e-12
       220   147.1541           26451   358            382            21686          4025           6.953183e-12 
       221   150.20867          27128   354            381            22248          4145           7.1329326e-12
       222   153.22277          27830   353            379            22818          4280           7.3144075e-12
       223   156.2539           28528   351            376            23352          4449           7.5124883e-12
       224   159.31778          29318   346            371            23979          4622           7.7237727e-12
       225   162.38355          30074   343            366            24554          4811           7.9295495e-12
       226   165.46573          30835   340            361            25154          4980           8.1240076e-12
       227   168.53382          31572   331            354            25686          5201           8.3160173e-12
       228   171.60566          32374   325            350            26289          5410           8.5214899e-12
       229   174.65956          33206   320            342            26890          5654           8.7288404e-12
       230   177.83324          33966   311            335            27431          5889           8.9205926e-12
       231   180.91236          34756   300            330            27989          6137           9.1443544e-12
       232   184.03201          35655   286            326            28635          6408           9.3467867e-12
       233   187.16844          36427   271            316            29142          6698           9.5368433e-12
       234   190.29211          37252   256            307            29656          7033           9.7422052e-12
       235   193.45272          38049   251            298            30219          7281           9.9251772e-12
       236   196.58836          38809   236            292            30694          7587           1.0097325e-11
       237   199.73242          39559   225            280            31203          7851           1.0258618e-11
       238   202.91997          40361   209            267            31732          8153           1.044168e-11 
       239   206.10582          41121   191            254            32221          8455           1.0586231e-11
       240   209.63517          41860   177            241            32686          8756           1.0739147e-11
       241   212.84412          42524   164            225            33097          9038           1.085329e-11 
       242   216.09968          43192   145            205            33515          9327           1.0988274e-11
       243   219.37819          43875   133            187            33943          9612           1.109002e-11 
       244   222.68869          44513   118            167            34320          9908           1.1186143e-11
       245   225.97078          45186   106            152            34765          10163          1.1295692e-11
       246   229.27707          45856   93             139            35216          10408          1.1374348e-11
       247   232.63588          46497   78             130            35683          10606          1.1462978e-11
       248   236.00806          46961   61             107            35943          10850          1.1514663e-11
       249   239.41381          47455   46             89             36256          11064          1.1552808e-11
       250   242.90479          48105   35             81             36729          11260          1.1626133e-11
       251   246.30377          48613   30             68             37079          11436          1.1655395e-11
       252   249.73852          49249   24             61             37532          11632          1.1725517e-11
       253   253.2166           49607   18             48             37709          11832          1.1718077e-11
       254   256.69254          50115   16             36             38012          12051          1.1772785e-11
       255   260.21681          50622   12             31             38306          12273          1.1787569e-11
       256   263.76802          51056   8              25             38545          12478          1.1783029e-11
       257   267.37565          51534   6              18             38779          12731          1.1790405e-11
       258   270.9774           51972   3              16             38938          13015          1.1777631e-11
       259   274.61756          52467   3              11             39115          13338          1.1850429e-11
       260   278.42525          52825   3              8              39140          13674          1.1807944e-11
       261   282.12185          53327   1              5              39306          14015          1.1844781e-11
       262   285.82146          53786   1              4              39431          14350          1.1853861e-11
       263   289.65755          54153   0              4              39432          14717          1.1835467e-11
       264   293.42525          54565   0              3              39465          15097          1.1848576e-11
       265   297.22608          54986   0              3              39527          15456          1.1840283e-11
       266   301.09458          55313   0              2              39513          15798          1.1808232e-11
       267   304.95315          55751   0              2              39614          16135          1.1803964e-11
       268   308.85643          56084   0              2              39606          16476          1.179813e-11 
       269   312.76622          56508   0              2              39696          16810          1.1799083e-11
       270   316.8481           56934   0              2              39816          17116          1.1818125e-11
       271   320.83153          57326   0              2              39912          17412          1.179687e-11 
       272   324.86387          57679   0              2              39980          17697          1.1797081e-11
       273   328.94705          58042   0              2              40061          17979          1.1790756e-11
       274   333.05282          58454   0              2              40188          18264          1.1774911e-11
       275   337.23264          58788   0              2              40234          18552          1.174954e-11 
       276   341.41925          59126   0              2              40270          18854          1.1761489e-11
       277   345.66039          59494   0              2              40349          19143          1.1735007e-11
       278   349.94218          59798   0              2              40345          19451          1.1731264e-11
       279   354.26802          60254   0              2              40503          19749          1.1758063e-11
       280   358.77899          60632   0              2              40555          20075          1.1761536e-11
       281   363.19282          61043   0              2              40663          20378          1.1759229e-11
       282   367.57802          61308   0              2              40598          20708          1.1720508e-11
       283   372.05154          61674   0              2              40621          21051          1.1726998e-11
       284   376.50816          62078   0              2              40673          21403          1.1736796e-11
       285   380.99755          62373   0              2              40635          21736          1.1721782e-11
       286   385.57381          62816   0              2              40719          22095          1.1726158e-11
       287   390.18689          63161   0              2              40723          22436          1.1739415e-11
       288   394.86133          63459   0              2              40661          22796          1.1725817e-11
       289   399.55823          63754   0              2              40546          23206          1.1708004e-11
       290   404.53243          64196   0              2              40606          23588          1.173985e-11 
       291   409.3456           64475   0              2              40509          23964          1.1713816e-11
       292   414.19373          64810   0              2              40447          24361          1.169135e-11 
       293   419.11566          65116   0              2              40323          24791          1.1707291e-11
       294   423.99572          65469   0              2              40218          25249          1.1702229e-11
       295   428.94956          65670   0              2              40009          25659          1.1684218e-11
       296   433.93776          66118   0              2              40050          26066          1.1696157e-11
       297   438.93537          66469   0              2              39933          26534          1.1680485e-11
       298   443.86288          66766   0              2              39768          26996          1.1700586e-11
       299   448.83977          67080   0              2              39596          27482          1.1706366e-11
       300   454.14908          67367   0              2              39417          27948          1.1698668e-11
       301   459.29502          67671   0              2              39249          28420          1.1702133e-11
       302   464.41833          68014   0              2              39087          28925          1.1706714e-11
       303   469.60084          68412   0              2              38988          29422          1.1724231e-11
       304   474.76163          68673   0              2              38752          29919          1.1713542e-11
       305   480.04482          68990   0              2              38557          30431          1.1730412e-11
       306   485.45656          69269   0              2              38401          30866          1.1719587e-11
       307   490.66243          69677   0              2              38356          31319          1.1759414e-11
       308   496.01459          70002   0              2              38233          31767          1.1762139e-11
       309   501.45245          70224   0              2              37945          32277          1.1753364e-11
       310   507.09819          70574   0              2              37817          32755          1.1757377e-11
       311   512.66529          70923   0              2              37735          33186          1.1770599e-11
       312   518.25729          71168   0              2              37544          33622          1.1758781e-11
       313   523.84468          71451   0              2              37409          34040          1.1752166e-11
       314   529.46493          71768   0              2              37320          34446          1.1768542e-11
       315   535.06337          72091   0              2              37187          34902          1.1780434e-11
       316   540.7798           72460   0              2              37116          35342          1.1795503e-11
       317   546.46578          72745   0              2              36994          35749          1.1807342e-11
       318   552.17775          73046   0              2              36940          36104          1.1821767e-11
       319   557.94414          73378   0              2              36884          36492          1.1835944e-11
       320   563.90509          73619   0              2              36760          36857          1.1821641e-11
Loop time of 563.905 on 16 procs for 320 steps with 73619 atoms

96.7% CPU use with 16 MPI tasks x 1 OpenMP threads

MPI task timing breakdown:
Section |  min time  |  avg time  |  max time  |%varavg| %total
---------------------------------------------------------------
Pair    | 72.124     | 108.06     | 196.64     | 295.0 | 19.16
Neigh   | 10.298     | 25.609     | 88.298     | 373.2 |  4.54
Comm    | 63.235     | 84.858     | 107.95     | 146.0 | 15.05
Output  | 24.23      | 24.23      | 24.231     |   0.0 |  4.30
Modify  | 139.7      | 295.1      | 364.39     | 317.6 | 52.33
Other   |            | 26.04      |            |       |  4.62

Nlocal:        4601.19 ave       11043 max        3075 min
Histogram: 9 2 2 0 1 1 0 0 0 1
Nghost:        3505.75 ave        5856 max        2498 min
Histogram: 4 4 2 1 2 0 2 0 0 1
Neighs:        33166.2 ave       48875 max       24873 min
Histogram: 2 3 3 2 3 0 2 0 0 1

Total # of neighbors = 530660
Ave neighs/atom = 7.2081935
Neighbor list builds = 4032
Dangerous builds = 356

Total wall time: 0:10:16
