LAMMPS (23 Jun 2022 - Update 4)
  using 1 OpenMP thread(s) per MPI task
package omp 0
using multi-threaded neighbor list subroutines
#-----------------------------------------------------------------------------#
#                NUFEB Simulation: Heterotrophic Biofilm Growth               #
#-----------------------------------------------------------------------------#


#-----------------------------System Settings---------------------------------#

units si                                    # using si units (m, s, kg)
atom_style      coccus                      # using nufeb coccus atom style
atom_modify     map array sort 10 0         # map array - find atoms using indices
		                            # sort every 10

boundary        pp pp ff                    # periodic boundaries in x and y
                                            # fixed boundary in z

newton          off                         # forces between local and ghost
                                            # atoms are computed in each
					     # processor without communication

processors      * * 1                       # processor grid

comm_modify     vel yes                     # communicate velocities for ghost atoms

read_data       atom_ch.in	             # read atom.in file which defines domain size
Reading data file ...
  orthogonal box = (0 0 0) to (6e-05 6e-05 6e-05)
  4 by 4 by 1 MPI processor grid
  reading atoms ...
  150 atoms
  read_data CPU = 0.021 seconds
                                            # and initial atoms


#--------------------Microbes and Functional Groups-------------------------#

group           CROSS1   type 1               # assign type 1,2 atoms to CROSS group
50 atoms in group CROSS1
group           CROSS2   type 2
50 atoms in group CROSS2
group		CHEATER  type 3
50 atoms in group CHEATER
group           dead     type 4
0 atoms in group dead

neighbor        5e-7 bin                   # setting neighbour skin distance and style

neigh_modify    check yes                  # rebuild neighbour list if any atom
                                           # had moved more than half the skin distance


#--------------------------Mesh Grid and Substrates--------------------------#

# defining grid sytle, substrate names, and grid size
grid_style      nufeb/chemostat 3 sub metab1 metab2 5e-6

# set diffusion boundary conditions and initial concentrations (liquid:kg/m3)
grid_modify     set sub      pp pp nd  1.8e-4
No /omp style for force computation currently active
grid_modify     set metab1   pp pp nd  1e-4
No /omp style for force computation currently active
grid_modify     set metab2   pp pp nd  1e-4
No /omp style for force computation currently active


#--------------------------Biological Processes-------------------------------#

# heterotrophs growth
fix growth_cross1 CROSS1 nufeb/growth/cross1 sub 3.5e-5 metab2 4e-3 metab1 growth 0.009 yield 0.6 decay 2.6e-6 metab1_exp 20

fix growth_cross2 CROSS2 nufeb/growth/cross2 sub 3.5e-5 metab1 4e-3 metab2 growth 0.009 yield 0.6 decay 2.6e-6 metab2_exp 20

fix growth_cheater CHEATER nufeb/growth/cheater sub 3.5e-5 metab1 1e-3 metab2 1e-3 growth 0.009 yield 0.6 decay 2.6e-6
# heterotrophs division, division diameter: 1.36e-6
fix div1 CROSS1 nufeb/division/coccus 1.36e-6 1127
fix div2 CROSS2 nufeb/division/coccus 1.36e-6 4202
fix div3 CHEATER nufeb/division/coccus 1.36e-6 9325

fix death1 CROSS1 nufeb/death/diameter dead 5.43e-7
fix death2 CROSS2 nufeb/death/diameter dead 5.43e-7
fix death3 CHEATER nufeb/death/diameter dead 5.43e-7

#---------------------------Physical Processes--------------------------------#

pair_style  gran/hooke/history 1e-4 NULL 1e-5 NULL 0.0 0    # pairwise interaction
pair_coeff  * *                                             # between atoms

# pairwise interaction between z-wall and atoms
fix wall all wall/gran hooke/history 1e-3 NULL 1e-4 NULL 0 0 zplane 0.0 1e-04

fix vis all viscous 1e-5                                    # viscous damping force

fix grav all gravity 9.81 vector 0.0 0.0 -1.0

fix nve all nve/limit 1e-7                                  # NVE integration with
                                                            # maximum distance limit


#---------------------------Post-Physical Processes---------------------------#

fix coeff_sub all nufeb/diffusion_coeff sub ratio 0.8       # defining diffusion coeff in the biofilm
fix coeff_metab1 all nufeb/diffusion_coeff metab1 ratio 0.8    # region is 80% of the value in liquid
fix coeff_metab2 all nufeb/diffusion_coeff metab2 ratio 0.8

#---------------------------Chemical Processes---------------------------------#

fix diff_sub all nufeb/diffusion_reaction sub 1e-9        # diffusion reaction for updating
fix diff_metab1 all nufeb/diffusion_reaction metab1 4e-9     # distribusion of substrate concentration
fix diff_metab2 all nufeb/diffusion_reaction metab2 4e-9

#--------------------------Computations and Outputs----------------------------#

variable mass equal "mass(all)"                             # total mass
variable ncross1 equal "count(CROSS1)"                      # total # of CROSS1
variable ncross2 equal "count(CROSS2)"                      # total # of CROSS2
variable ncheater equal "count(CHEATER)"
variable ndead equal "count(dead)"

shell mkdir vtk_NEPS_ch                                            # dump vtk files to /vtk folder
dump du1 all vtk 10 vtk_NEPS_ch/dump*.vtu id type diameter         # require build NUFEB with vtk option
dump du2 all grid/vtk 10 vtk_NEPS_ch/dump_%_*.vti con rea den gro

#dump du3 all movie 10 movie.avi type diameter view 80 60    # dump video
#dump_modify du3 acolor 1 blue acolor 2 lightgrey framerate 10


                                                            # dump hdf5 files to /hdf5 folder
#shell mkdir hdf5                                           # require build NUFEB with hdf5 option
#dump du3 all nufeb/hdf5 10 dump.h5 id type x y z vx vy vz fx fy fz radius conc reac

thermo_style custom step cpu atoms v_ncross1 v_ncross2 v_ncheater v_ndead v_mass     # screen and log outputs
thermo 1
thermo_modify   lost ignore

#-----------------------------------Run----------------------------------------#

# issue run command, define timesteps for physical (pairdt) and chemical (diffdt) processes
run_style nufeb diffdt 1e-4 difftol 1e-6 pairdt 1e-2 pairtol 1 pairmax 1000 diffmax 5000

timestep 12000                                               # define biological timesteps (1000s)

run 320                                                    # growing biofilm for 900x1000s
Generated 0 of 6 mixed pair_coeff terms from geometric mixing rule
Last active /omp style is pair_style gran/hooke/history/omp
Neighbor list info ...
  update every 1 steps, delay 10 steps, check yes
  max neighbors/atom: 2000, page size: 100000
  master list distance cutoff = 2.49e-06
  ghost atom cutoff = 2.49e-06
  binsize = 1.245e-06, bins = 49 49 49
  1 neighbor lists, perpetual/occasional/extra = 1 0 0
  (1) pair gran/hooke/history/omp, perpetual
      attributes: half, newton off, size, history, omp
      pair build: half/size/bin/newtoff/omp
      stencil: full/bin/3d
      bin: standard
Per MPI rank memory allocation (min/avg/max) = 11.02 | 11.02 | 11.02 Mbytes
   Step          CPU          Atoms      v_ncross1      v_ncross2      v_ncheater      v_ndead         v_mass    
         0   0                    150   50             50             50             0              1.3295396e-13
         1   0.38502255           273   96             91             86             0              1.9616795e-13
         2   0.74624827           431   149            147            135            0              2.2410712e-13
         3   1.055247             538   174            190            174            0              2.4604957e-13
         4   1.3524554            592   188            212            192            0              2.6509109e-13
         5   1.5353504            628   200            221            207            0              2.8281832e-13
         6   1.6820201            657   212            234            211            0              2.9961854e-13
         7   1.8268443            704   226            247            231            0              3.1569821e-13
         8   1.9752933            737   242            254            241            0              3.3070547e-13
         9   2.0913225            770   247            266            257            0              3.4493263e-13
        10   2.2116395            809   257            281            271            0              3.585958e-13 
        11   2.3191357            842   267            286            289            0              3.7159382e-13
        12   2.4191844            863   272            295            296            0              3.8389927e-13
        13   2.5134256            904   284            306            314            0              3.9557502e-13
        14   2.6077854            936   292            314            330            0              4.0647919e-13
        15   2.6937733            964   301            320            343            0              4.1690845e-13
        16   2.7714349            984   308            324            352            0              4.2671591e-13
        17   2.8730029           1016   315            329            372            0              4.3606188e-13
        18   2.9572635           1040   322            333            385            0              4.4504061e-13
        19   3.003022            1062   327            338            397            0              4.5320715e-13
        20   3.0802114           1076   329            341            406            0              4.6098749e-13
        21   3.1535563           1094   334            345            415            0              4.6831183e-13
        22   3.2356563           1119   337            350            432            0              4.753486e-13 
        23   3.3015991           1134   340            354            440            0              4.8217168e-13
        24   3.3885994           1149   342            356            451            0              4.887809e-13 
        25   3.4521419           1172   350            358            464            0              4.9522456e-13
        26   3.5187452           1189   353            361            475            0              5.0129245e-13
        27   3.5809261           1207   355            361            491            0              5.0708687e-13
        28   3.6632037           1223   356            365            502            0              5.1260536e-13
        29   3.726056            1245   362            365            518            0              5.17946e-13  
        30   3.7957752           1264   367            368            529            0              5.2302865e-13
        31   3.8516508           1274   367            370            537            0              5.2788129e-13
        32   3.9316831           1292   370            374            548            0              5.3255511e-13
        33   3.9884683           1305   374            374            557            0              5.3701184e-13
        34   4.0358017           1316   378            375            563            0              5.4120445e-13
        35   4.0835475           1327   379            378            570            0              5.4515831e-13
        36   4.1392678           1340   382            380            578            0              5.4892728e-13
        37   4.1868205           1358   386            383            589            0              5.5252335e-13
        38   4.2317304           1373   386            383            604            0              5.5594828e-13
        39   4.2761979           1387   390            383            614            0              5.5922347e-13
        40   4.3314195           1399   393            386            620            0              5.6236713e-13
        41   4.3793648           1414   394            388            632            0              5.653775e-13 
        42   4.4160031           1425   397            388            640            0              5.6819795e-13
        43   4.4478943           1437   399            389            649            0              5.7093573e-13
        44   4.4908086           1442   399            389            654            0              5.7354724e-13
        45   4.5330305           1451   400            393            658            0              5.7607554e-13
        46   4.5615183           1461   402            393            666            0              5.7849413e-13
        47   4.5892973           1472   404            393            675            0              5.8079758e-13
        48   4.6273008           1482   410            393            679            0              5.8299235e-13
        49   4.6655065           1493   412            397            684            0              5.8509407e-13
        50   4.7199271           1502   412            397            693            0              5.8712233e-13
        51   4.7579615           1512   415            399            698            0              5.8906442e-13
        52   4.8061088           1518   416            399            703            0              5.9092437e-13
        53   4.8507639           1531   417            400            714            0              5.9276174e-13
        54   4.8919004           1540   420            400            720            0              5.9453266e-13
        55   4.9332561           1550   422            400            727            1              5.9623093e-13
        56   4.9828753           1557   423            401            732            1              5.9786825e-13
        57   5.0391787           1563   424            401            736            2              5.9936818e-13
        58   5.0669803           1569   424            401            741            3              6.0081779e-13
        59   5.110727            1573   424            402            744            3              6.0217192e-13
        60   5.1738752           1581   425            402            748            6              6.0347968e-13
        61   5.2023373           1587   426            402            752            7              6.0480653e-13
        62   5.2463435           1590   427            402            747            14             6.0606058e-13
        63   5.2905855           1599   428            402            750            19             6.0728562e-13
        64   5.3338684           1605   428            402            751            24             6.0847728e-13
        65   5.3771509           1608   429            402            746            31             6.0963947e-13
        66   5.4085808           1613   429            402            747            35             6.1078024e-13
        67   5.440698            1621   431            404            739            47             6.1186886e-13
        68   5.4798987           1628   431            407            733            57             6.1292552e-13
        69   5.5178961           1639   431            407            741            60             6.1396211e-13
        70   5.5784381           1648   432            408            741            67             6.1496938e-13
        71   5.6130497           1652   432            408            739            73             6.1596933e-13
        72   5.647331            1657   434            409            733            81             6.1695071e-13
        73   5.6793705           1663   434            409            728            92             6.1790772e-13
        74   5.7053215           1669   434            409            724            102            6.1885354e-13
        75   5.7356226           1674   434            409            725            106            6.1976828e-13
        76   5.7608693           1677   434            409            721            113            6.2065111e-13
        77   5.7898316           1679   434            409            717            119            6.2150105e-13
        78   5.8244225           1684   435            410            714            125            6.2230768e-13
        79   5.8519034           1689   435            411            711            132            6.2312723e-13
        80   5.8948622           1694   438            411            708            137            6.2390853e-13
        81   5.9191556           1699   439            411            706            143            6.2466822e-13
        82   5.9470468           1705   439            412            708            146            6.2540101e-13
        83   5.9743861           1709   439            412            709            149            6.2610999e-13
        84   6.0009342           1712   439            412            711            150            6.2679709e-13
        85   6.0294388           1715   439            412            707            157            6.2745805e-13
        86   6.0548857           1718   439            413            707            159            6.2800208e-13
        87   6.0797466           1722   439            414            704            165            6.2851758e-13
        88   6.104845            1726   439            415            703            169            6.2901643e-13
        89   6.1293867           1727   439            415            701            172            6.2949233e-13
        90   6.1709687           1732   439            416            704            173            6.2994715e-13
        91   6.2019811           1733   439            416            705            173            6.3038003e-13
        92   6.2253607           1738   441            416            703            178            6.3081516e-13
        93   6.2538627           1741   441            416            703            181            6.3123856e-13
        94   6.2759323           1744   441            416            699            188            6.3166098e-13
        95   6.2983791           1750   441            416            701            192            6.3207035e-13
        96   6.3195303           1755   442            417            700            196            6.3246135e-13
        97   6.3402231           1759   444            417            701            197            6.3283903e-13
        98   6.3601496           1762   444            417            699            202            6.3319514e-13
        99   6.3796862           1762   444            417            691            210            6.3353654e-13
       100   6.4124831           1765   445            417            690            213            6.3386898e-13
       101   6.4312104           1767   446            417            686            218            6.3418432e-13
       102   6.4505417           1769   446            418            685            220            6.34487e-13  
       103   6.4662401           1774   446            418            687            223            6.3477345e-13
       104   6.4835573           1776   447            418            687            224            6.3503432e-13
       105   6.5008104           1778   447            418            684            229            6.3527876e-13
       106   6.5306876           1781   447            418            683            233            6.3551398e-13
       107   6.5583662           1783   448            418            681            236            6.3578078e-13
       108   6.5811357           1783   448            418            681            236            6.3603378e-13
       109   6.608165            1784   448            418            680            238            6.3627004e-13
       110   6.6499455           1786   448            418            681            239            6.3658387e-13
       111   6.6741665           1789   448            418            682            241            6.3688618e-13
       112   6.698359            1791   448            418            681            244            6.3718108e-13
       113   6.7233206           1795   449            418            684            244            6.3746716e-13
       114   6.7485876           1798   449            418            687            244            6.3773961e-13
       115   6.7736559           1798   449            418            687            244            6.3800366e-13
       116   6.79905             1802   449            418            690            245            6.3825671e-13
       117   6.8245559           1803   449            418            691            245            6.3850267e-13
       118   6.8499411           1803   449            418            689            247            6.3873971e-13
       119   6.8742329           1805   449            418            690            248            6.3897245e-13
       120   6.9168961           1807   449            418            691            249            6.3917211e-13
       121   6.9425072           1812   450            418            693            251            6.3937578e-13
       122   6.9739369           1816   450            418            696            252            6.3959608e-13
       123   7.0239412           1817   450            418            697            252            6.3980755e-13
       124   7.075465            1818   451            418            696            253            6.4014898e-13
       125   7.1085887           1823   452            418            699            254            6.4052968e-13
       126   7.1534283           1827   453            418            702            254            6.4083548e-13
       127   7.1887678           1828   453            418            703            254            6.4120652e-13
       128   7.2332788           1829   453            418            704            254            6.4150147e-13
       129   7.2871704           1832   453            418            707            254            6.4186642e-13
       130   7.3658686           1833   453            418            708            254            6.4232229e-13
       131   7.4340484           1838   454            418            712            254            6.4289278e-13
       132   7.5172798           1841   454            418            713            256            6.4365016e-13
       133   7.5881872           1844   454            418            715            257            6.4458784e-13
       134   7.6774912           1849   454            418            717            260            6.4560422e-13
       135   7.7709149           1853   454            418            719            262            6.468326e-13 
       136   7.8701313           1859   454            418            725            262            6.4825328e-13
       137   7.9599168           1867   454            418            733            262            6.4987233e-13
       138   8.0465382           1873   454            418            737            264            6.5161018e-13
       139   8.1319513           1882   454            418            744            266            6.5344463e-13
       140   8.2479427           1888   454            418            750            266            6.5535368e-13
       141   8.3269758           1899   454            418            761            266            6.574177e-13 
       142   8.3920351           1908   454            418            770            266            6.5950221e-13
       143   8.4710583           1916   454            418            778            266            6.615546e-13 
       144   8.5506743           1923   454            418            785            266            6.6371194e-13
       145   8.6384372           1935   454            418            797            266            6.6583813e-13
       146   8.737357            1946   454            418            808            266            6.6813089e-13
       147   8.8343303           1952   454            418            813            267            6.7049072e-13
       148   8.908914            1963   454            418            824            267            6.729631e-13 
       149   8.9919972           1975   455            418            834            268            6.7545744e-13
       150   9.104537            1982   455            418            841            268            6.7796368e-13
       151   9.1915692           1997   455            418            856            268            6.8054712e-13
       152   9.283929            2006   455            418            865            268            6.8323728e-13
       153   9.3979971           2015   455            418            874            268            6.8600561e-13
       154   9.5237425           2032   455            418            891            268            6.8912756e-13
       155   9.5966546           2044   456            418            902            268            6.9234566e-13
       156   9.6416023           2055   456            418            913            268            6.9545045e-13
       157   9.7702838           2071   456            418            929            268            6.9836606e-13
       158   9.9268011           2081   456            418            939            268            7.0162788e-13
       159   10.141079           2094   456            418            950            270            7.056047e-13 
       160   10.333779           2105   456            418            961            270            7.1026715e-13
       161   10.52926            2124   457            418            978            271            7.1521949e-13
       162   10.743304           2152   457            418            1005           272            7.2066031e-13
       163   10.912042           2171   458            418            1023           272            7.2659063e-13
       164   11.089321           2196   458            418            1045           275            7.3265023e-13
       165   11.253539           2215   458            418            1062           277            7.388875e-13 
       166   11.411388           2233   458            418            1080           277            7.4516511e-13
       167   11.551859           2265   458            418            1107           282            7.5145178e-13
       168   11.677343           2287   458            418            1122           289            7.576957e-13 
       169   11.792578           2305   458            418            1140           289            7.6378093e-13
       170   11.924481           2326   458            418            1160           290            7.6969592e-13
       171   12.035757           2356   458            418            1189           291            7.7544258e-13
       172   12.127003           2377   458            418            1209           292            7.8103329e-13
       173   12.261534           2397   458            418            1227           294            7.8620085e-13
       174   12.405719           2415   458            419            1237           301            7.9159118e-13
       175   12.578153           2439   458            419            1256           306            7.9706562e-13
       176   12.763617           2464   458            419            1278           309            8.0280746e-13
       177   13.041337           2491   458            419            1299           315            8.0882591e-13
       178   13.305748           2516   458            419            1321           318            8.1572135e-13
       179   13.538343           2543   458            419            1345           321            8.2326952e-13
       180   13.822439           2574   458            419            1371           326            8.3112273e-13
       181   14.103503           2604   458            419            1399           328            8.3962406e-13
       182   14.328374           2642   458            419            1431           334            8.4859571e-13
       183   14.561379           2670   458            420            1455           337            8.5763807e-13
       184   14.753876           2706   459            420            1487           340            8.6673183e-13
       185   14.942774           2748   459            420            1522           347            8.7558828e-13
       186   15.11647            2776   459            420            1544           353            8.8428251e-13
       187   15.28403            2810   459            420            1572           359            8.9271804e-13
       188   15.454774           2842   459            420            1599           364            9.0088148e-13
       189   15.67245            2869   459            419            1617           374            9.0894186e-13
       190   15.936786           2916   458            419            1661           378            9.1743384e-13
       191   16.22274            2948   459            420            1688           381            9.2602132e-13
       192   16.518863           2992   459            420            1726           387            9.3528734e-13
       193   16.90957            3029   459            420            1759           391            9.4507945e-13
       194   17.263348           3084   459            420            1812           393            9.5630816e-13
       195   17.631711           3132   459            420            1856           397            9.6852477e-13
       196   17.975407           3182   459            420            1903           400            9.8152834e-13
       197   18.331558           3231   459            419            1952           401            9.9520085e-13
       198   18.639243           3284   459            419            2000           406            1.0091261e-12
       199   18.920028           3347   459            417            2056           415            1.0230876e-12
       200   19.207788           3402   459            417            2105           421            1.0369968e-12
       201   19.48271            3459   459            416            2159           425            1.0505797e-12
       202   19.782331           3510   457            416            2209           428            1.0639709e-12
       203   20.076963           3580   457            416            2277           430            1.0775428e-12
       204   20.446638           3634   457            416            2330           431            1.0912379e-12
       205   20.846122           3700   457            417            2392           434            1.1055715e-12
       206   21.235784           3772   457            417            2459           439            1.1209789e-12
       207   21.642451           3841   457            417            2526           441            1.1371395e-12
       208   22.086353           3900   457            417            2583           443            1.1543201e-12
       209   22.492997           3981   457            417            2663           444            1.17197e-12  
       210   22.918843           4067   457            417            2747           446            1.1903915e-12
       211   23.330495           4144   457            418            2821           448            1.2090501e-12
       212   23.710053           4211   457            418            2885           451            1.2279273e-12
       213   24.041753           4298   456            418            2969           455            1.2466873e-12
       214   24.424847           4376   456            418            3045           457            1.2651006e-12
       215   24.798706           4456   456            418            3125           457            1.2835983e-12
       216   25.166911           4548   456            418            3212           462            1.3019387e-12
       217   25.58762            4618   456            417            3281           464            1.3201897e-12
       218   26.029927           4698   456            416            3356           470            1.3389061e-12
       219   26.477112           4784   456            416            3439           473            1.358144e-12 
       220   26.96351            4875   455            416            3525           479            1.3777667e-12
       221   27.454959           4965   455            416            3611           483            1.3977743e-12
       222   27.916185           5043   455            416            3684           488            1.4189987e-12
       223   28.389016           5130   455            416            3764           495            1.4409805e-12
       224   28.816309           5222   455            416            3849           502            1.4628802e-12
       225   29.280754           5315   455            416            3936           508            1.4844295e-12
       226   29.731911           5404   455            416            4016           517            1.5059702e-12
       227   30.197045           5515   455            416            4114           530            1.5269734e-12
       228   30.72272            5614   455            416            4203           540            1.5488445e-12
       229   31.234987           5700   455            416            4285           544            1.57098e-12  
       230   31.772766           5808   455            414            4387           552            1.5935537e-12
       231   32.307807           5906   455            414            4476           561            1.6171028e-12
       232   32.824536           6020   455            412            4584           569            1.6422128e-12
       233   33.33497            6137   454            411            4694           578            1.6682144e-12
       234   33.869028           6240   454            411            4786           589            1.6952151e-12
       235   34.375439           6361   454            411            4897           599            1.7228782e-12
       236   34.881621           6474   453            411            4996           614            1.7508219e-12
       237   35.39633            6589   453            410            5100           626            1.7789857e-12
       238   35.916736           6719   453            410            5219           637            1.8066768e-12
       239   36.458989           6859   453            410            5339           657            1.8350061e-12
       240   37.031458           6970   453            410            5426           681            1.863979e-12 
       241   37.568628           7122   453            410            5559           700            1.8938821e-12
       242   38.114074           7239   453            410            5658           718            1.9249035e-12
       243   38.686374           7383   453            410            5781           739            1.9572175e-12
       244   39.28032            7559   453            409            5919           778            1.9909165e-12
       245   39.850535           7693   453            407            6013           820            2.025616e-12 
       246   40.452761           7850   453            407            6132           858            2.0610001e-12
       247   41.031149           8003   452            407            6246           898            2.0967425e-12
       248   41.639236           8144   452            407            6343           942            2.1325644e-12
       249   42.259924           8303   450            405            6461           987            2.1684798e-12
       250   42.899778           8454   450            404            6552           1048           2.2045244e-12
       251   43.573233           8629   450            404            6673           1102           2.2410061e-12
       252   44.219171           8801   450            404            6790           1157           2.2787909e-12
       253   44.889735           8966   450            404            6903           1209           2.318661e-12 
       254   45.555838           9141   450            404            7032           1255           2.3596956e-12
       255   46.262705           9327   450            404            7175           1298           2.4030744e-12
       256   46.956106           9518   450            403            7316           1349           2.4486227e-12
       257   47.725281           9709   450            403            7460           1396           2.4956673e-12
       258   48.475624           9900   450            402            7595           1453           2.5440152e-12
       259   49.203791          10108   449            402            7744           1513           2.5929402e-12
       260   49.972881          10315   449            402            7914           1550           2.642925e-12 
       261   50.725237          10539   449            402            8089           1599           2.6942772e-12
       262   51.541153          10758   449            402            8258           1649           2.7464018e-12
       263   52.360968          10995   447            402            8451           1695           2.8005744e-12
       264   53.212883          11227   446            402            8634           1745           2.8571455e-12
       265   54.085992          11469   444            401            8845           1779           2.9161906e-12
       266   54.964402          11727   444            401            9058           1824           2.979548e-12 
       267   55.931456          12001   443            400            9298           1860           3.0453986e-12
       268   56.918265          12281   443            400            9529           1909           3.1139873e-12
       269   57.884023          12563   443            400            9753           1967           3.1854614e-12
       270   59.017175          12855   443            400            10006          2006           3.2593986e-12
       271   60.214764          13159   443            399            10266          2051           3.3366534e-12
       272   61.407968          13460   443            399            10534          2084           3.4179947e-12
       273   62.644903          13799   443            399            10823          2134           3.5061178e-12
       274   63.951199          14115   441            399            11094          2181           3.6014717e-12
       275   65.488155          14504   441            398            11439          2226           3.7066401e-12
       276   67.025546          14924   441            398            11821          2264           3.8198728e-12
       277   68.790485          15342   441            398            12183          2320           3.9436559e-12
       278   70.889814          15787   441            398            12563          2385           4.0743408e-12
       279   73.231693          16247   440            398            12969          2440           4.2094507e-12
       280   75.828824          16755   438            398            13413          2506           4.3509406e-12
       281   78.463716          17250   437            397            13837          2579           4.4867093e-12
       282   81.310902          17711   437            397            14237          2640           4.6193505e-12
       283   84.193016          18222   436            397            14692          2697           4.7631424e-12
       284   87.13949           18739   436            396            15121          2786           4.9042814e-12
       285   90.049335          19276   436            396            15578          2866           5.051147e-12 
       286   93.017556          19771   436            396            15996          2943           5.2020212e-12
       287   95.958203          20297   436            396            16442          3023           5.3450891e-12
       288   98.931418          20864   435            396            16918          3115           5.4936703e-12
       289   101.90731          21396   435            395            17361          3205           5.6317492e-12
       290   104.94238          21976   433            395            17847          3301           5.7916507e-12
       291   107.97213          22549   431            394            18316          3408           5.9447404e-12
       292   110.95844          23185   431            393            18848          3513           6.1237622e-12
       293   113.92253          23797   431            393            19348          3625           6.290832e-12 
       294   116.9244           24463   429            393            19905          3736           6.466717e-12 
       295   119.90806          25038   428            391            20362          3857           6.6340785e-12
       296   122.87816          25681   427            390            20899          3965           6.7999041e-12
       297   125.87546          26395   424            389            21490          4092           6.9866258e-12
       298   128.85647          27021   422            387            21982          4230           7.1648724e-12
       299   131.83911          27769   418            386            22617          4348           7.3689245e-12
       300   134.90111          28524   417            384            23239          4484           7.5771639e-12
       301   137.88968          29260   414            382            23830          4634           7.7687485e-12
       302   140.8873           29997   414            380            24427          4776           7.9614435e-12
       303   143.8988           30804   414            379            25094          4917           8.1713823e-12
       304   146.90262          31526   410            376            25655          5085           8.3737102e-12
       305   149.89103          32303   401            369            26282          5251           8.5730215e-12
       306   152.92049          33119   398            365            26919          5437           8.7678859e-12
       307   155.91486          33931   393            360            27567          5611           8.9852468e-12
       308   158.93613          34736   387            357            28175          5817           9.185406e-12 
       309   161.97678          35545   385            348            28772          6040           9.3929069e-12
       310   165.18923          36372   372            342            29390          6268           9.6047248e-12
       311   168.28879          37242   368            333            30026          6515           9.8140332e-12
       312   171.37618          37911   360            323            30436          6792           9.9706303e-12
       313   174.41907          38744   338            313            30984          7109           1.0154846e-11
       314   177.52355          39518   325            302            31482          7409           1.0336061e-11
       315   180.61268          40272   311            289            31941          7731           1.0493846e-11
       316   183.70793          41017   296            274            32405          8042           1.0645477e-11
       317   186.84494          41742   269            260            32854          8359           1.0766024e-11
       318   189.96645          42372   248            243            33203          8678           1.0886376e-11
       319   193.0642           43122   226            229            33671          8996           1.1025407e-11
       320   196.2758           43755   205            214            34034          9302           1.1128844e-11
Loop time of 196.276 on 16 procs for 320 steps with 43755 atoms

99.0% CPU use with 16 MPI tasks x 1 OpenMP threads

MPI task timing breakdown:
Section |  min time  |  avg time  |  max time  |%varavg| %total
---------------------------------------------------------------
Pair    | 0.50191    | 16.048     | 58.242     | 388.3 |  8.18
Neigh   | 0.11821    | 4.2275     | 25.931     | 308.2 |  2.15
Comm    | 24.656     | 30.812     | 38.254     |  75.9 | 15.70
Output  | 1.114      | 1.1141     | 1.1142     |   0.0 |  0.57
Modify  | 68.896     | 131.19     | 154.77     | 198.7 | 66.84
Other   |            | 12.89      |            |       |  6.57

Nlocal:        2734.69 ave        9639 max         308 min
Histogram: 3 7 2 1 1 1 0 0 0 1
Nghost:        2058.88 ave        4909 max         676 min
Histogram: 2 6 2 0 3 0 1 1 0 1
Neighs:        14368.4 ave       30701 max        1691 min
Histogram: 1 2 2 3 2 3 0 2 0 1

Total # of neighbors = 229895
Ave neighs/atom = 5.2541424
Neighbor list builds = 1960
Dangerous builds = 183

Total wall time: 0:03:35
