LAMMPS (23 Jun 2022 - Update 4)
  using 1 OpenMP thread(s) per MPI task
package omp 0
using multi-threaded neighbor list subroutines
#-----------------------------------------------------------------------------#
#                NUFEB Simulation: Heterotrophic Biofilm Growth               #
#-----------------------------------------------------------------------------#


#-----------------------------System Settings---------------------------------#

units si                                    # using si units (m, s, kg)
atom_style      coccus                      # using nufeb coccus atom style
atom_modify     map array sort 10 0         # map array - find atoms using indices
		                            # sort every 10

boundary        pp pp ff                    # periodic boundaries in x and y
                                            # fixed boundary in z

newton          off                         # forces between local and ghost
                                            # atoms are computed in each
					     # processor without communication

processors      * * 1                       # processor grid

comm_modify     vel yes                     # communicate velocities for ghost atoms

read_data       atom_ch.in	             # read atom.in file which defines domain size
Reading data file ...
  orthogonal box = (0 0 0) to (6e-05 6e-05 6e-05)
  4 by 4 by 1 MPI processor grid
  reading atoms ...
  150 atoms
  read_data CPU = 0.015 seconds
                                            # and initial atoms


#--------------------Microbes and Functional Groups-------------------------#

group           CROSS1   type 1               # assign type 1,2 atoms to CROSS group
50 atoms in group CROSS1
group           CROSS2   type 2
50 atoms in group CROSS2
group		CHEATER  type 3
50 atoms in group CHEATER
group           dead     type 4
0 atoms in group dead

neighbor        5e-7 bin                   # setting neighbour skin distance and style

neigh_modify    check yes                  # rebuild neighbour list if any atom
                                           # had moved more than half the skin distance


#--------------------------Mesh Grid and Substrates--------------------------#

# defining grid sytle, substrate names, and grid size
grid_style      nufeb/chemostat 3 sub metab1 metab2 5e-6

# set diffusion boundary conditions and initial concentrations (liquid:kg/m3)
grid_modify     set sub      pp pp nd  1.8e-4
No /omp style for force computation currently active
grid_modify     set metab1   pp pp nd  1e-4
No /omp style for force computation currently active
grid_modify     set metab2   pp pp nd  1e-4
No /omp style for force computation currently active


#--------------------------Biological Processes-------------------------------#

# heterotrophs growth
fix growth_cross1 CROSS1 nufeb/growth/cross1 sub 3.5e-5 metab2 4e-3 metab1 growth 0.009 yield 0.6 decay 2.6e-6 metab1_exp 20

fix growth_cross2 CROSS2 nufeb/growth/cross2 sub 3.5e-5 metab1 4e-3 metab2 growth 0.009 yield 0.6 decay 2.6e-6 metab2_exp 20

fix growth_cheater CHEATER nufeb/growth/cheater sub 3.5e-5 metab1 1e-3 metab2 1e-3 growth 0.009 yield 0.6 decay 2.6e-6
# heterotrophs division, division diameter: 1.36e-6
fix div1 CROSS1 nufeb/division/coccus 1.36e-6 1328
fix div2 CROSS2 nufeb/division/coccus 1.36e-6 5006
fix div3 CHEATER nufeb/division/coccus 1.36e-6 11134

fix death1 CROSS1 nufeb/death/diameter dead 5.43e-7
fix death2 CROSS2 nufeb/death/diameter dead 5.43e-7
fix death3 CHEATER nufeb/death/diameter dead 5.43e-7

#---------------------------Physical Processes--------------------------------#

pair_style  gran/hooke/history 1e-4 NULL 1e-5 NULL 0.0 0    # pairwise interaction
pair_coeff  * *                                             # between atoms

# pairwise interaction between z-wall and atoms
fix wall all wall/gran hooke/history 1e-3 NULL 1e-4 NULL 0 0 zplane 0.0 1e-04

fix vis all viscous 1e-5                                    # viscous damping force

fix grav all gravity 9.81 vector 0.0 0.0 -1.0

fix nve all nve/limit 1e-7                                  # NVE integration with
                                                            # maximum distance limit


#---------------------------Post-Physical Processes---------------------------#

fix coeff_sub all nufeb/diffusion_coeff sub ratio 0.8       # defining diffusion coeff in the biofilm
fix coeff_metab1 all nufeb/diffusion_coeff metab1 ratio 0.8    # region is 80% of the value in liquid
fix coeff_metab2 all nufeb/diffusion_coeff metab2 ratio 0.8

#---------------------------Chemical Processes---------------------------------#

fix diff_sub all nufeb/diffusion_reaction sub 1e-9        # diffusion reaction for updating
fix diff_metab1 all nufeb/diffusion_reaction metab1 4e-9     # distribusion of substrate concentration
fix diff_metab2 all nufeb/diffusion_reaction metab2 4e-9

#--------------------------Computations and Outputs----------------------------#

variable mass equal "mass(all)"                             # total mass
variable ncross1 equal "count(CROSS1)"                      # total # of CROSS1
variable ncross2 equal "count(CROSS2)"                      # total # of CROSS2
variable ncheater equal "count(CHEATER)"
variable ndead equal "count(dead)"

shell mkdir vtk_NEPS_ch                                            # dump vtk files to /vtk folder
dump du1 all vtk 10 vtk_NEPS_ch/dump*.vtu id type diameter         # require build NUFEB with vtk option
dump du2 all grid/vtk 10 vtk_NEPS_ch/dump_%_*.vti con rea den gro

#dump du3 all movie 10 movie.avi type diameter view 80 60    # dump video
#dump_modify du3 acolor 1 blue acolor 2 lightgrey framerate 10


                                                            # dump hdf5 files to /hdf5 folder
#shell mkdir hdf5                                           # require build NUFEB with hdf5 option
#dump du3 all nufeb/hdf5 10 dump.h5 id type x y z vx vy vz fx fy fz radius conc reac

thermo_style custom step cpu atoms v_ncross1 v_ncross2 v_ncheater v_ndead v_mass     # screen and log outputs
thermo 1
thermo_modify   lost ignore

#-----------------------------------Run----------------------------------------#

# issue run command, define timesteps for physical (pairdt) and chemical (diffdt) processes
run_style nufeb diffdt 1e-4 difftol 1e-6 pairdt 1e-2 pairtol 1 pairmax 1000 diffmax 5000

timestep 12000                                               # define biological timesteps (1000s)

run 320                                                    # growing biofilm for 900x1000s
Generated 0 of 6 mixed pair_coeff terms from geometric mixing rule
Last active /omp style is pair_style gran/hooke/history/omp
Neighbor list info ...
  update every 1 steps, delay 10 steps, check yes
  max neighbors/atom: 2000, page size: 100000
  master list distance cutoff = 2.49e-06
  ghost atom cutoff = 2.49e-06
  binsize = 1.245e-06, bins = 49 49 49
  1 neighbor lists, perpetual/occasional/extra = 1 0 0
  (1) pair gran/hooke/history/omp, perpetual
      attributes: half, newton off, size, history, omp
      pair build: half/size/bin/newtoff/omp
      stencil: full/bin/3d
      bin: standard
Per MPI rank memory allocation (min/avg/max) = 11.02 | 11.02 | 11.02 Mbytes
   Step          CPU          Atoms      v_ncross1      v_ncross2      v_ncheater      v_ndead         v_mass    
         0   0                    150   50             50             50             0              1.3295396e-13
         1   0.38435835           273   96             91             86             0              1.9616795e-13
         2   0.7626448            435   149            150            136            0              2.2403377e-13
         3   1.0710871            533   170            193            170            0              2.4537775e-13
         4   1.3668353            586   184            212            190            0              2.6461783e-13
         5   1.5728731            621   194            224            203            0              2.8235935e-13
         6   1.7152226            657   207            240            210            0              2.9891341e-13
         7   1.8560362            700   221            248            231            0              3.1498378e-13
         8   1.9900937            738   230            266            242            0              3.2999027e-13
         9   2.0940501            778   242            277            259            0              3.4417418e-13
        10   2.2046417            811   249            287            275            0              3.5771621e-13
        11   2.2976899            840   257            295            288            0              3.7040592e-13
        12   2.4027502            866   265            305            296            0              3.8253976e-13
        13   2.4932606            890   268            315            307            0              3.941036e-13 
        14   2.5725204            927   276            321            330            0              4.0505713e-13
        15   2.6797514            948   281            324            343            0              4.1540934e-13
        16   2.7766086            968   289            329            350            0              4.2548623e-13
        17   2.8670924            992   295            336            361            0              4.3494237e-13
        18   2.9786725           1022   302            343            377            0              4.4394417e-13
        19   3.0522583           1046   310            345            391            0              4.5269834e-13
        20   3.1715062           1068   315            349            404            0              4.607727e-13 
        21   3.2680744           1088   319            353            416            0              4.686564e-13 
        22   3.3782456           1104   321            356            427            0              4.7628642e-13
        23   3.516359            1122   324            359            439            0              4.8395739e-13
        24   3.6499286           1142   325            366            451            0              4.9151775e-13
        25   3.8159064           1168   332            369            467            0              4.9904135e-13
        26   3.9993456           1195   336            372            487            0              5.0689303e-13
        27   4.1644463           1217   340            375            502            0              5.1517912e-13
        28   4.3856994           1245   344            376            525            0              5.2348873e-13
        29   4.5692431           1267   348            377            542            0              5.3236296e-13
        30   4.7781543           1290   351            380            559            0              5.4140169e-13
        31   4.9530874           1317   353            382            582            0              5.5063597e-13
        32   5.1143123           1351   356            384            611            0              5.6004871e-13
        33   5.2564641           1380   358            386            636            0              5.695071e-13 
        34   5.3985912           1416   359            388            669            0              5.788478e-13 
        35   5.5422591           1444   359            388            697            0              5.8814198e-13
        36   5.6667626           1471   360            389            722            0              5.9733443e-13
        37   5.794152            1502   362            390            750            0              6.0630777e-13
        38   5.9110782           1544   366            390            788            0              6.1522304e-13
        39   6.0610161           1571   371            390            810            0              6.2381565e-13
        40   6.2425083           1591   374            391            826            0              6.3257091e-13
        41   6.3993452           1616   374            391            851            0              6.4128444e-13
        42   6.5891026           1655   376            392            887            0              6.5009803e-13
        43   6.8030849           1683   377            392            914            0              6.5895323e-13
        44   7.0217071           1719   379            394            946            0              6.6819304e-13
        45   7.2114522           1752   382            394            976            0              6.7772383e-13
        46   7.4087677           1778   383            394            1001           0              6.8726783e-13
        47   7.5871659           1812   385            394            1033           0              6.9687744e-13
        48   7.7442264           1846   385            394            1067           0              7.0637702e-13
        49   7.8780381           1875   385            395            1095           0              7.1562808e-13
        50   8.0504326           1917   386            395            1136           0              7.2448832e-13
        51   8.1587604           1943   388            395            1159           1              7.3343088e-13
        52   8.3543161           1971   388            397            1185           1              7.4197152e-13
        53   8.5628709           2002   390            397            1214           1              7.506315e-13 
        54   8.7719329           2034   391            398            1243           2              7.5958249e-13
        55   9.0046097           2068   392            398            1275           3              7.6860339e-13
        56   9.2523824           2105   392            399            1309           5              7.7812162e-13
        57   9.5492888           2143   394            399            1340           10             7.8817338e-13
        58   9.8431373           2179   395            399            1371           14             7.987919e-13 
        59   10.129086           2218   395            399            1401           23             8.1009097e-13
        60   10.444966           2253   395            399            1433           26             8.218636e-13 
        61   10.705371           2300   395            403            1471           31             8.3409928e-13
        62   10.964818           2349   396            403            1513           37             8.4644673e-13
        63   11.188326           2401   397            403            1553           48             8.5884632e-13
        64   11.391209           2445   399            403            1591           52             8.7101612e-13
        65   11.571643           2484   400            403            1622           59             8.8296393e-13
        66   11.743595           2537   401            403            1664           69             8.9446971e-13
        67   11.950636           2589   403            403            1708           75             9.0561308e-13
        68   12.179304           2623   403            403            1737           80             9.1675155e-13
        69   12.452116           2650   403            403            1752           92             9.2806817e-13
        70   12.782072           2698   403            403            1793           99             9.3975327e-13
        71   13.201692           2756   403            403            1846           104            9.5233232e-13
        72   13.574437           2798   403            403            1880           112            9.6581084e-13
        73   13.931118           2867   403            403            1939           122            9.804747e-13 
        74   14.303852           2925   403            403            1994           125            9.9597691e-13
        75   14.673854           2984   403            403            2049           129            1.0123275e-12
        76   15.012035           3050   403            403            2108           136            1.0294426e-12
        77   15.330484           3115   403            403            2170           139            1.0467475e-12
        78   15.66338            3178   403            403            2228           144            1.0641714e-12
        79   15.917852           3265   403            403            2306           153            1.0819756e-12
        80   16.231672           3331   403            403            2363           162            1.0991374e-12
        81   16.523073           3405   402            403            2425           175            1.1162625e-12
        82   16.848773           3471   402            403            2480           186            1.1334839e-12
        83   17.183326           3545   402            403            2539           201            1.1509755e-12
        84   17.52778            3625   401            403            2611           210            1.1686411e-12
        85   17.91783            3708   400            403            2681           224            1.1867561e-12
        86   18.306439           3796   400            403            2759           234            1.2060188e-12
        87   18.693869           3879   399            403            2829           248            1.2260941e-12
        88   19.079125           3969   398            403            2907           261            1.246829e-12 
        89   19.464725           4053   398            403            2980           272            1.2681831e-12
        90   19.85104            4139   398            403            3054           284            1.2898637e-12
        91   20.223183           4238   398            402            3144           294            1.311491e-12 
        92   20.590038           4325   397            402            3219           307            1.3332102e-12
        93   21.061562           4419   397            402            3307           313            1.35498e-12  
        94   21.401841           4515   396            402            3393           324            1.3763449e-12
        95   21.74542            4606   395            402            3476           333            1.3974442e-12
        96   22.104958           4698   395            402            3559           342            1.4184278e-12
        97   22.499686           4799   394            402            3653           350            1.43948e-12  
        98   22.887125           4904   394            402            3750           358            1.4608034e-12
        99   23.277567           5004   393            401            3846           364            1.4826213e-12
       100   23.690744           5106   393            400            3940           373            1.5051223e-12
       101   24.077779           5210   393            400            4039           378            1.5282554e-12
       102   24.472223           5334   392            399            4159           384            1.5520643e-12
       103   24.868686           5437   392            399            4259           387            1.5761455e-12
       104   25.262446           5544   391            399            4361           393            1.6004319e-12
       105   25.632531           5660   391            397            4476           396            1.6244444e-12
       106   26.006057           5776   391            397            4589           399            1.6481017e-12
       107   26.409533           5877   391            397            4690           399            1.6715497e-12
       108   26.790583           5987   391            396            4797           403            1.6949318e-12
       109   27.212483           6101   390            396            4906           409            1.7181995e-12
       110   27.663712           6227   390            396            5031           410            1.7421983e-12
       111   28.097866           6347   390            396            5148           413            1.7671292e-12
       112   28.509682           6476   390            396            5269           421            1.7928339e-12
       113   29.01621            6600   390            395            5384           431            1.8187859e-12
       114   29.431079           6714   390            395            5487           442            1.8460392e-12
       115   29.854535           6841   390            394            5602           455            1.8737587e-12
       116   30.268908           6975   390            393            5719           473            1.902105e-12 
       117   30.66518            7102   389            393            5831           489            1.9303436e-12
       118   31.075779           7231   389            393            5941           508            1.9580733e-12
       119   31.494813           7377   389            393            6069           526            1.9857601e-12
       120   31.965755           7514   389            393            6183           549            2.0130212e-12
       121   32.398502           7620   388            393            6268           571            2.0403111e-12
       122   32.846046           7768   388            393            6389           598            2.067999e-12 
       123   33.291527           7906   387            393            6496           630            2.0966437e-12
       124   33.725722           8048   387            392            6608           661            2.1266948e-12
       125   34.189995           8195   387            391            6722           695            2.1583158e-12
       126   34.64468            8349   387            391            6842           729            2.1914072e-12
       127   35.077334           8522   387            390            6968           777            2.2248988e-12
       128   35.524336           8682   387            389            7074           832            2.2589736e-12
       129   35.980513           8828   387            389            7156           896            2.2932347e-12
       130   36.480738           8997   387            389            7265           956            2.327165e-12 
       131   36.956364           9149   387            389            7367           1006           2.3613705e-12
       132   37.451054           9319   387            388            7489           1055           2.3959687e-12
       133   37.952357           9484   387            388            7609           1100           2.4328494e-12
       134   38.451421           9654   387            387            7715           1165           2.471464e-12 
       135   38.974086           9849   387            387            7838           1237           2.5122552e-12
       136   39.474758          10038   387            387            7961           1303           2.5554948e-12
       137   39.968077          10230   387            387            8094           1362           2.6009824e-12
       138   40.461572          10425   387            387            8219           1432           2.6474975e-12
       139   40.980368          10628   386            387            8361           1494           2.6949463e-12
       140   41.533957          10824   386            387            8472           1579           2.7432856e-12
       141   42.066491          11056   386            387            8626           1657           2.7920299e-12
       142   42.592146          11293   385            387            8789           1732           2.8416373e-12
       143   43.121575          11506   385            387            8935           1799           2.8928557e-12
       144   43.707311          11751   385            387            9109           1870           2.9467234e-12
       145   44.327414          11968   385            387            9268           1928           3.0038707e-12
       146   44.927444          12224   385            387            9474           1978           3.0636449e-12
       147   45.569664          12490   385            387            9672           2046           3.1265476e-12
       148   46.224063          12754   385            387            9849           2133           3.1925914e-12
       149   46.896767          13026   384            387            10064          2191           3.2605213e-12
       150   47.646555          13313   384            386            10292          2251           3.3314782e-12
       151   48.391024          13603   384            385            10504          2330           3.4054627e-12
       152   49.17611           13902   384            384            10745          2389           3.4828813e-12
       153   49.97203           14215   384            384            10992          2455           3.5648405e-12
       154   50.819551          14555   384            384            11262          2525           3.6554288e-12
       155   51.770749          14904   383            384            11555          2582           3.7532338e-12
       156   52.865764          15301   383            384            11897          2637           3.8615789e-12
       157   53.986621          15687   383            382            12213          2709           3.9796222e-12
       158   55.251772          16144   383            382            12614          2765           4.1083469e-12
       159   56.666034          16600   383            382            13016          2819           4.2412895e-12
       160   58.413608          17094   383            381            13456          2874           4.3831277e-12
       161   60.089669          17566   383            381            13865          2937           4.515691e-12 
       162   61.851314          18051   383            380            14290          2998           4.6502157e-12
       163   63.662306          18518   383            380            14692          3063           4.7914027e-12
       164   65.554185          19044   383            379            15121          3161           4.9328924e-12
       165   67.482106          19537   383            377            15550          3227           5.0769585e-12
       166   69.468591          20084   383            375            16015          3311           5.2260371e-12
       167   71.511003          20644   383            374            16512          3375           5.3795843e-12
       168   73.603714          21169   382            373            16955          3459           5.5265484e-12
       169   75.762233          21723   382            373            17419          3549           5.6754595e-12
       170   78.019746          22273   382            372            17877          3642           5.8220517e-12
       171   80.283032          22843   382            369            18347          3745           5.9775475e-12
       172   82.58707           23459   382            369            18860          3848           6.1415562e-12
       173   84.905448          24062   382            369            19359          3952           6.3096992e-12
       174   87.269103          24659   382            368            19861          4048           6.4830236e-12
       175   89.638301          25302   382            366            20404          4150           6.6540227e-12
       176   92.036375          25983   381            364            20995          4243           6.8229205e-12
       177   94.492563          26600   380            358            21504          4358           7.0003422e-12
       178   96.932893          27357   379            357            22153          4468           7.1924108e-12
       179   99.380106          28067   379            352            22737          4599           7.3784201e-12
       180   101.90608          28798   378            349            23361          4710           7.5951803e-12
       181   104.43347          29514   377            347            23941          4849           7.7800695e-12
       182   106.8843           30284   376            345            24575          4988           7.9826891e-12
       183   109.32763          31041   373            340            25154          5174           8.1701744e-12
       184   111.78064          31730   368            331            25716          5315           8.3595498e-12
       185   114.23366          32550   364            326            26385          5475           8.5781211e-12
       186   116.68322          33309   360            320            26984          5645           8.7677535e-12
       187   119.16007          34110   355            314            27617          5824           8.9777476e-12
       188   121.64648          34918   351            305            28233          6029           9.1666839e-12
       189   124.11983          35714   346            302            28784          6282           9.3728509e-12
       190   126.6794           36529   332            294            29370          6533           9.5583648e-12
       191   129.18696          37364   325            282            29994          6763           9.7688801e-12
       192   131.72277          38094   318            266            30499          7011           9.937335e-12 
       193   134.23279          38907   309            261            31065          7272           1.0114552e-11
       194   136.75505          39732   300            251            31630          7551           1.0310113e-11
       195   139.2705           40449   285            232            32070          7862           1.0446985e-11
       196   141.78345          41258   273            220            32570          8195           1.0631696e-11
       197   144.33511          41949   258            204            32999          8488           1.0756143e-11
       198   146.88959          42617   238            180            33409          8790           1.0879969e-11
       199   149.47084          43231   224            166            33764          9077           1.0982677e-11
       200   152.15059          43921   203            155            34165          9398           1.1094256e-11
       201   154.75324          44601   180            142            34599          9680           1.1199278e-11
       202   157.32592          45254   162            133            35005          9954           1.1295298e-11
       203   159.93527          45830   142            122            35373          10193          1.1380401e-11
       204   162.55372          46384   122            103            35715          10444          1.1436526e-11
       205   165.19784          46948   100            83             36061          10704          1.1499599e-11
       206   167.87457          47527   82             68             36445          10932          1.1564446e-11
       207   170.56742          48092   73             57             36779          11183          1.160682e-11 
       208   173.26288          48605   63             46             37077          11419          1.1659844e-11
       209   175.98124          49126   51             41             37395          11639          1.1691746e-11
       210   178.81077          49675   43             33             37712          11887          1.1730349e-11
       211   181.5664           50159   34             20             37990          12115          1.1755198e-11
       212   184.36599          50651   24             11             38224          12392          1.1768826e-11
       213   187.09966          51148   18             9              38498          12623          1.1789632e-11
       214   189.86682          51540   10             4              38591          12935          1.1812433e-11
       215   192.65468          51966   7              3              38745          13211          1.1806139e-11
       216   195.44314          52459   7              2              38951          13499          1.1809349e-11
       217   198.23866          52899   4              1              39090          13804          1.1813019e-11
       218   201.05156          53334   4              1              39199          14130          1.1817968e-11
       219   203.90499          53781   4              0              39338          14439          1.1843456e-11
       220   206.92638          54068   4              0              39314          14750          1.1790048e-11
       221   209.80666          54460   4              0              39338          15118          1.1794701e-11
       222   212.70112          54865   4              0              39367          15494          1.1787104e-11
       223   215.62093          55248   4              0              39427          15817          1.1788382e-11
       224   218.55068          55726   4              0              39586          16136          1.1784514e-11
       225   221.53777          56078   4              0              39611          16463          1.1784399e-11
       226   224.54755          56460   3              0              39657          16800          1.1775182e-11
       227   227.6032           56860   3              0              39726          17131          1.1778252e-11
       228   230.62177          57259   3              0              39809          17447          1.178142e-11 
       229   233.71336          57604   3              0              39848          17753          1.175638e-11 
       230   236.97649          58027   3              0              39966          18058          1.1768725e-11
       231   240.06611          58412   3              0              40047          18362          1.1776817e-11
       232   243.17657          58712   3              0              40034          18675          1.1759664e-11
       233   246.31494          59107   3              0              40172          18932          1.174188e-11 
       234   249.52054          59550   3              0              40316          19231          1.1760137e-11
       235   252.74545          59830   3              0              40301          19526          1.1740377e-11
       236   255.97392          60204   3              0              40376          19825          1.1729266e-11
       237   259.24957          60562   3              0              40443          20116          1.1743333e-11
       238   262.53138          60912   3              0              40493          20416          1.1718383e-11
       239   265.8202           61304   3              0              40556          20745          1.172882e-11 
       240   269.298            61711   3              0              40649          21059          1.1734989e-11
       241   272.67562          62015   3              0              40645          21367          1.1717531e-11
       242   276.04305          62371   3              0              40672          21696          1.1732103e-11
       243   279.40434          62795   3              0              40764          22028          1.1737997e-11
       244   282.87206          63049   3              0              40673          22373          1.1720853e-11
       245   286.37295          63364   3              0              40634          22727          1.1697291e-11
       246   289.86172          63706   3              0              40575          23128          1.170202e-11 
       247   293.37569          64074   3              0              40540          23531          1.1711203e-11
       248   296.94256          64426   3              0              40504          23919          1.1698238e-11
       249   300.49671          64695   3              0              40355          24337          1.168342e-11 
       250   304.22384          65050   3              0              40286          24761          1.1700002e-11
       251   307.70352          65372   3              0              40197          25172          1.1696425e-11
       252   311.2246           65680   3              0              40112          25565          1.1691717e-11
       253   314.88305          66106   3              0              40092          26011          1.1697844e-11
       254   318.58756          66351   3              0              39854          26494          1.1688399e-11
       255   322.19088          66704   3              0              39721          26980          1.1701019e-11
       256   325.76415          67067   3              0              39644          27420          1.1720077e-11
       257   329.46763          67342   3              0              39453          27886          1.1703454e-11
       258   333.14892          67715   3              0              39358          28354          1.171669e-11 
       259   337.00216          67952   3              0              39047          28902          1.1687368e-11
       260   340.8769           68328   3              0              38975          29350          1.1728339e-11
       261   344.60856          68643   3              0              38834          29806          1.1714037e-11
       262   348.37238          69007   3              0              38689          30315          1.1738724e-11
       263   352.15566          69351   3              0              38539          30809          1.1745296e-11
       264   356.13293          69598   3              0              38311          31284          1.172871e-11 
       265   359.95375          69921   3              0              38204          31714          1.1746499e-11
       266   363.77008          70255   3              0              38065          32187          1.177817e-11 
       267   367.70832          70541   3              0              37918          32620          1.17606e-11  
       268   371.65865          70919   3              0              37796          33120          1.1782941e-11
       269   375.65493          71258   3              0              37669          33586          1.1810902e-11
       270   379.95782          71447   3              0              37373          34071          1.1779717e-11
       271   383.98654          71784   3              0              37291          34490          1.1789102e-11
       272   388.04549          72122   3              0              37209          34910          1.1799508e-11
       273   392.1676           72397   3              0              37072          35322          1.1798251e-11
       274   396.3007           72703   3              0              36941          35759          1.1800267e-11
       275   400.43211          72963   3              0              36804          36156          1.182049e-11 
       276   404.58423          73339   3              0              36780          36556          1.1830913e-11
       277   408.76902          73604   3              0              36644          36957          1.1831387e-11
       278   412.98507          73952   3              0              36600          37349          1.1849164e-11
       279   417.2416           74213   3              0              36459          37751          1.1853203e-11
       280   421.72548          74447   3              0              36347          38097          1.1848551e-11
       281   425.99537          74890   3              0              36418          38469          1.1877396e-11
       282   430.29958          75132   3              0              36286          38843          1.1884219e-11
       283   434.65858          75467   3              0              36311          39153          1.1899434e-11
       284   438.93718          75743   3              0              36242          39498          1.1908276e-11
       285   443.30361          76075   3              0              36220          39852          1.1932232e-11
       286   447.71681          76373   3              0              36201          40169          1.1933705e-11
       287   452.21428          76634   3              0              36109          40522          1.1933929e-11
       288   456.6973           76974   3              0              36113          40858          1.1958625e-11
       289   461.22048          77246   3              0              36007          41236          1.196584e-11 
       290   465.9513           77506   3              0              35942          41561          1.1967744e-11
       291   470.51702          77845   3              0              35922          41920          1.1974996e-11
       292   475.14558          78100   3              0              35831          42266          1.1969659e-11
       293   479.7868           78423   3              0              35849          42571          1.1997016e-11
       294   484.42026          78759   3              0              35831          42925          1.2017625e-11
       295   489.10947          79030   3              0              35773          43254          1.204099e-11 
       296   493.90811          79300   3              0              35713          43584          1.2022971e-11
       297   498.7026           79645   3              0              35735          43907          1.2057987e-11
       298   503.48541          79948   3              0              35702          44243          1.2059982e-11
       299   508.25823          80245   3              0              35705          44537          1.2082061e-11
       300   513.28458          80506   3              0              35677          44826          1.2078859e-11
       301   518.15242          80852   3              0              35767          45082          1.2110042e-11
       302   522.99467          81196   3              0              35754          45439          1.2123234e-11
       303   527.93959          81363   3              0              35611          45749          1.2109109e-11
       304   532.86412          81675   3              0              35614          46058          1.2124684e-11
       305   537.87407          81927   3              0              35572          46352          1.2101926e-11
       306   542.85927          82218   3              0              35556          46659          1.2119663e-11
       307   547.9389           82566   3              0              35597          46966          1.2166194e-11
       308   553.02964          82840   3              0              35556          47281          1.214438e-11 
       309   558.14969          83134   3              0              35541          47590          1.214698e-11 
       310   563.42985          83483   3              0              35583          47897          1.2177742e-11
       311   568.62695          83644   3              0              35436          48205          1.2155725e-11
       312   573.77122          83944   3              0              35432          48509          1.2190557e-11
       313   578.9609           84244   3              0              35423          48818          1.2200489e-11
       314   584.15992          84567   3              0              35441          49123          1.2214749e-11
       315   589.4363           84880   3              0              35448          49429          1.222977e-11 
       316   594.66914          85171   3              0              35429          49739          1.2233774e-11
       317   599.9697           85387   3              0              35363          50021          1.2241372e-11
       318   605.29284          85677   3              0              35330          50344          1.2251292e-11
       319   610.6538           86046   3              0              35403          50640          1.2282624e-11
       320   616.24429          86280   3              0              35347          50930          1.2263046e-11
Loop time of 616.245 on 16 procs for 320 steps with 86280 atoms

97.7% CPU use with 16 MPI tasks x 1 OpenMP threads

MPI task timing breakdown:
Section |  min time  |  avg time  |  max time  |%varavg| %total
---------------------------------------------------------------
Pair    | 145.97     | 187.43     | 253.44     | 276.2 | 30.42
Neigh   | 26.934     | 46.466     | 88.552     | 318.1 |  7.54
Comm    | 78.943     | 99.313     | 127.54     | 181.9 | 16.12
Output  | 2.7637     | 2.7638     | 2.7641     |   0.0 |  0.45
Modify  | 140.96     | 259.79     | 335.1      | 432.9 | 42.16
Other   |            | 20.48      |            |       |  3.32

Nlocal:         5392.5 ave        8543 max        4016 min
Histogram: 9 2 0 0 1 0 0 0 1 3
Nghost:        4250.88 ave        6748 max        3108 min
Histogram: 4 6 2 0 0 0 0 0 3 1
Neighs:        45772.1 ave       55448 max       38958 min
Histogram: 4 0 3 5 0 0 0 0 0 4

Total # of neighbors = 732353
Ave neighs/atom = 8.4880969
Neighbor list builds = 5183
Dangerous builds = 421

Total wall time: 0:10:34
