LAMMPS (23 Jun 2022 - Update 4)
  using 1 OpenMP thread(s) per MPI task
package omp 0
using multi-threaded neighbor list subroutines
#-----------------------------------------------------------------------------#
#                NUFEB Simulation: Heterotrophic Biofilm Growth               #
#-----------------------------------------------------------------------------#


#-----------------------------System Settings---------------------------------#

units si                                    # using si units (m, s, kg)
atom_style      coccus                      # using nufeb coccus atom style
atom_modify     map array sort 10 0         # map array - find atoms using indices
		                            # sort every 10

boundary        pp pp ff                    # periodic boundaries in x and y
                                            # fixed boundary in z

newton          off                         # forces between local and ghost
                                            # atoms are computed in each
					     # processor without communication

processors      * * 1                       # processor grid

comm_modify     vel yes                     # communicate velocities for ghost atoms

read_data       atom_ch.in	             # read atom.in file which defines domain size
Reading data file ...
  orthogonal box = (0 0 0) to (6e-05 6e-05 6e-05)
  4 by 4 by 1 MPI processor grid
  reading atoms ...
  150 atoms
  read_data CPU = 0.077 seconds
                                            # and initial atoms


#--------------------Microbes and Functional Groups-------------------------#

group           CROSS1   type 1               # assign type 1,2 atoms to CROSS group
50 atoms in group CROSS1
group           CROSS2   type 2
50 atoms in group CROSS2
group		CHEATER  type 3
50 atoms in group CHEATER
group           dead     type 4
0 atoms in group dead

neighbor        5e-7 bin                   # setting neighbour skin distance and style

neigh_modify    check yes                  # rebuild neighbour list if any atom
                                           # had moved more than half the skin distance


#--------------------------Mesh Grid and Substrates--------------------------#

# defining grid sytle, substrate names, and grid size
grid_style      nufeb/chemostat 3 sub metab1 metab2 5e-6

# set diffusion boundary conditions and initial concentrations (liquid:kg/m3)
grid_modify     set sub      pp pp nd  1.8e-4
No /omp style for force computation currently active
grid_modify     set metab1   pp pp nd  1e-4
No /omp style for force computation currently active
grid_modify     set metab2   pp pp nd  1e-4
No /omp style for force computation currently active


#--------------------------Biological Processes-------------------------------#

# heterotrophs growth
fix growth_cross1 CROSS1 nufeb/growth/cross1 sub 3.5e-5 metab2 4e-3 metab1 growth 0.009 yield 0.6 decay 2.6e-6 metab1_exp 20

fix growth_cross2 CROSS2 nufeb/growth/cross2 sub 3.5e-5 metab1 4e-3 metab2 growth 0.009 yield 0.6 decay 2.6e-6 metab2_exp 20

fix growth_cheater CHEATER nufeb/growth/cheater sub 3.5e-5 metab1 1e-3 metab2 1e-3 growth 0.009 yield 0.6 decay 2.6e-6
# heterotrophs division, division diameter: 1.36e-6
fix div1 CROSS1 nufeb/division/coccus 1.36e-6 247
fix div2 CROSS2 nufeb/division/coccus 1.36e-6 682
fix div3 CHEATER nufeb/division/coccus 1.36e-6 1405

fix death1 CROSS1 nufeb/death/diameter dead 5.43e-7
fix death2 CROSS2 nufeb/death/diameter dead 5.43e-7
fix death3 CHEATER nufeb/death/diameter dead 5.43e-7

#---------------------------Physical Processes--------------------------------#

pair_style  gran/hooke/history 1e-4 NULL 1e-5 NULL 0.0 0    # pairwise interaction
pair_coeff  * *                                             # between atoms

# pairwise interaction between z-wall and atoms
fix wall all wall/gran hooke/history 1e-3 NULL 1e-4 NULL 0 0 zplane 0.0 1e-04

fix vis all viscous 1e-5                                    # viscous damping force

fix grav all gravity 9.81 vector 0.0 0.0 -1.0

fix nve all nve/limit 1e-7                                  # NVE integration with
                                                            # maximum distance limit


#---------------------------Post-Physical Processes---------------------------#

fix coeff_sub all nufeb/diffusion_coeff sub ratio 0.8       # defining diffusion coeff in the biofilm
fix coeff_metab1 all nufeb/diffusion_coeff metab1 ratio 0.8    # region is 80% of the value in liquid
fix coeff_metab2 all nufeb/diffusion_coeff metab2 ratio 0.8

#---------------------------Chemical Processes---------------------------------#

fix diff_sub all nufeb/diffusion_reaction sub 1e-9        # diffusion reaction for updating
fix diff_metab1 all nufeb/diffusion_reaction metab1 4e-9     # distribusion of substrate concentration
fix diff_metab2 all nufeb/diffusion_reaction metab2 4e-9

#--------------------------Computations and Outputs----------------------------#

variable mass equal "mass(all)"                             # total mass
variable ncross1 equal "count(CROSS1)"                      # total # of CROSS1
variable ncross2 equal "count(CROSS2)"                      # total # of CROSS2
variable ncheater equal "count(CHEATER)"
variable ndead equal "count(dead)"

shell mkdir vtk_NEPS_ch                                            # dump vtk files to /vtk folder
dump du1 all vtk 10 vtk_NEPS_ch/dump*.vtu id type diameter         # require build NUFEB with vtk option
dump du2 all grid/vtk 10 vtk_NEPS_ch/dump_%_*.vti con rea den gro

#dump du3 all movie 10 movie.avi type diameter view 80 60    # dump video
#dump_modify du3 acolor 1 blue acolor 2 lightgrey framerate 10


                                                            # dump hdf5 files to /hdf5 folder
#shell mkdir hdf5                                           # require build NUFEB with hdf5 option
#dump du3 all nufeb/hdf5 10 dump.h5 id type x y z vx vy vz fx fy fz radius conc reac

thermo_style custom step cpu atoms v_ncross1 v_ncross2 v_ncheater v_ndead v_mass     # screen and log outputs
thermo 1
thermo_modify   lost ignore

#-----------------------------------Run----------------------------------------#

# issue run command, define timesteps for physical (pairdt) and chemical (diffdt) processes
run_style nufeb diffdt 1e-4 difftol 1e-6 pairdt 1e-2 pairtol 1 pairmax 1000 diffmax 5000

timestep 12000                                               # define biological timesteps (1000s)

run 320                                                    # growing biofilm for 900x1000s
Generated 0 of 6 mixed pair_coeff terms from geometric mixing rule
Last active /omp style is pair_style gran/hooke/history/omp
Neighbor list info ...
  update every 1 steps, delay 10 steps, check yes
  max neighbors/atom: 2000, page size: 100000
  master list distance cutoff = 2.49e-06
  ghost atom cutoff = 2.49e-06
  binsize = 1.245e-06, bins = 49 49 49
  1 neighbor lists, perpetual/occasional/extra = 1 0 0
  (1) pair gran/hooke/history/omp, perpetual
      attributes: half, newton off, size, history, omp
      pair build: half/size/bin/newtoff/omp
      stencil: full/bin/3d
      bin: standard
Per MPI rank memory allocation (min/avg/max) = 11.02 | 11.02 | 11.02 Mbytes
   Step          CPU          Atoms      v_ncross1      v_ncross2      v_ncheater      v_ndead         v_mass    
         0   0                    150   50             50             50             0              1.3295396e-13
         1   0.38498129           273   96             91             86             0              1.9616795e-13
         2   0.75392676           431   149            147            135            0              2.2440616e-13
         3   1.0714547            536   168            201            167            0              2.4548697e-13
         4   1.3655131            587   186            216            185            0              2.6424761e-13
         5   1.5520432            621   192            229            200            0              2.8176949e-13
         6   1.7081657            663   206            243            214            0              2.9842672e-13
         7   1.8540298            696   215            255            226            0              3.14055e-13  
         8   1.9631249            732   226            267            239            0              3.2891173e-13
         9   2.0786892            770   239            278            253            0              3.4312745e-13
        10   2.2052103            801   243            289            269            0              3.5656598e-13
        11   2.3139947            843   260            301            282            0              3.6935498e-13
        12   2.4093404            870   266            309            295            0              3.8167869e-13
        13   2.5065629            897   273            314            310            0              3.9341644e-13
        14   2.593621             925   278            320            327            0              4.0468419e-13
        15   2.6826819            942   280            326            336            0              4.1536283e-13
        16   2.7791319            974   286            334            354            0              4.2548107e-13
        17   2.8542956           1007   291            343            373            0              4.3521401e-13
        18   2.9302423           1024   294            352            378            0              4.4439358e-13
        19   3.0176026           1045   298            355            392            0              4.5314063e-13
        20   3.1912115           1071   303            362            406            0              4.6151353e-13
        21   3.257372            1087   307            364            416            0              4.6949401e-13
        22   3.3233073           1112   313            366            433            0              4.7707168e-13
        23   3.3761685           1135   318            372            445            0              4.8432261e-13
        24   3.4357597           1158   322            375            461            0              4.9124514e-13
        25   3.4928881           1173   326            378            469            0              4.9782546e-13
        26   3.5579076           1190   329            383            478            0              5.0411731e-13
        27   3.6218797           1208   331            386            491            0              5.1008766e-13
        28   3.6929028           1224   334            390            500            0              5.158941e-13 
        29   3.7620024           1245   336            395            514            0              5.2137472e-13
        30   3.8417812           1261   338            398            525            0              5.2662159e-13
        31   3.897917            1278   339            403            536            0              5.3167186e-13
        32   3.986154            1296   344            405            547            0              5.365872e-13 
        33   4.0621606           1312   346            406            560            0              5.4127529e-13
        34   4.1225795           1326   349            409            568            0              5.4569712e-13
        35   4.1914631           1338   350            413            575            0              5.4990641e-13
        36   4.2624209           1356   352            414            590            0              5.5400813e-13
        37   4.3258344           1365   353            414            598            0              5.5804289e-13
        38   4.4084455           1378   356            416            606            0              5.6197102e-13
        39   4.4713709           1394   358            418            618            0              5.6587691e-13
        40   4.5778929           1401   358            420            623            0              5.6961947e-13
        41   4.6747178           1418   359            423            636            0              5.7335173e-13
        42   4.7709228           1432   360            424            648            0              5.7717992e-13
        43   4.8654952           1444   360            425            659            0              5.8112268e-13
        44   4.9949035           1459   363            427            669            0              5.8507312e-13
        45   5.0983336           1468   363            427            678            0              5.8936319e-13
        46   5.2079779           1491   364            428            699            0              5.9364022e-13
        47   5.3167903           1503   366            429            708            0              5.9800176e-13
        48   5.4348089           1521   367            429            725            0              6.023916e-13 
        49   5.589381            1545   370            431            744            0              6.0692808e-13
        50   5.728743            1559   371            432            756            0              6.118114e-13 
        51   5.8270116           1575   373            432            770            0              6.1679543e-13
        52   5.9216685           1593   374            432            787            0              6.2168629e-13
        53   6.0128848           1606   375            432            798            1              6.2649434e-13
        54   6.1083381           1635   376            434            823            2              6.3131671e-13
        55   6.1993954           1651   377            434            837            3              6.3615121e-13
        56   6.2915819           1666   377            434            852            3              6.4096505e-13
        57   6.3675544           1681   377            434            866            4              6.4575828e-13
        58   6.4485667           1701   379            434            883            5              6.5043142e-13
        59   6.5435943           1719   379            435            898            7              6.5498888e-13
        60   6.668285            1737   379            436            912            10             6.595813e-13 
        61   6.7276168           1753   379            436            925            13             6.6410188e-13
        62   6.8156088           1767   380            436            936            15             6.6842389e-13
        63   6.9067061           1781   381            436            946            18             6.727084e-13 
        64   7.0497795           1803   381            436            960            26             6.7705202e-13
        65   7.200525            1829   381            439            970            39             6.8157904e-13
        66   7.3660202           1847   382            439            980            46             6.8644936e-13
        67   7.537456            1865   383            439            990            53             6.9172585e-13
        68   7.737421            1884   384            440            1001           59             6.9722604e-13
        69   7.9472738           1907   384            440            1018           65             7.0319893e-13
        70   8.1696294           1928   385            440            1033           70             7.096693e-13 
        71   8.3375234           1951   385            440            1048           78             7.1645218e-13
        72   8.5079416           1975   385            441            1061           88             7.2329594e-13
        73   8.6612347           2000   385            441            1079           95             7.3022226e-13
        74   8.7998966           2027   385            441            1098           103            7.3713092e-13
        75   8.9249633           2047   386            441            1114           106            7.4395234e-13
        76   9.0378907           2079   386            441            1138           114            7.5061477e-13
        77   9.140865            2099   386            442            1148           123            7.5711735e-13
        78   9.2348827           2124   386            442            1166           130            7.6340614e-13
        79   9.3319833           2149   386            442            1189           132            7.694984e-13 
        80   9.591167            2171   386            442            1210           133            7.7534909e-13
        81   9.812034            2203   386            442            1236           139            7.8180657e-13
        82   10.020782           2233   386            442            1260           145            7.8834034e-13
        83   10.279854           2254   386            442            1280           146            7.9503891e-13
        84   10.525081           2278   386            442            1299           151            8.0242591e-13
        85   10.779337           2299   386            442            1318           153            8.103219e-13 
        86   11.044343           2335   386            442            1346           161            8.1871148e-13
        87   11.329393           2365   387            442            1371           165            8.2769428e-13
        88   11.579005           2406   387            442            1401           176            8.371669e-13 
        89   11.776854           2438   387            442            1426           183            8.4678841e-13
        90   11.982003           2472   387            442            1455           188            8.5629589e-13
        91   12.164724           2510   387            442            1489           192            8.6563705e-13
        92   12.331491           2537   387            442            1510           198            8.7478261e-13
        93   12.527009           2576   387            442            1543           204            8.8375357e-13
        94   12.750961           2615   387            442            1580           206            8.9281273e-13
        95   13.046005           2656   387            443            1615           211            9.021312e-13 
        96   13.32644            2696   387            443            1646           220            9.1222982e-13
        97   13.691828           2734   387            443            1679           225            9.2267521e-13
        98   14.03662            2777   387            443            1715           232            9.3437888e-13
        99   14.399263           2825   387            443            1755           240            9.4678829e-13
       100   14.780598           2867   387            443            1792           245            9.6009074e-13
       101   15.06726            2925   387            443            1841           254            9.739686e-13 
       102   15.347196           2974   387            443            1885           259            9.8777131e-13
       103   15.616078           3021   384            443            1926           268            1.0016e-12   
       104   15.921989           3071   384            443            1970           274            1.0153089e-12
       105   16.171458           3130   384            441            2024           281            1.0295629e-12
       106   16.441605           3190   384            441            2079           286            1.0433684e-12
       107   16.763047           3245   384            441            2126           294            1.0571388e-12
       108   17.085599           3304   384            439            2177           304            1.0714784e-12
       109   17.462296           3362   384            438            2227           313            1.086258e-12 
       110   17.866718           3429   384            438            2289           318            1.1019374e-12
       111   18.246372           3494   383            438            2347           326            1.1188448e-12
       112   18.621151           3571   383            438            2421           329            1.1366003e-12
       113   18.990998           3652   383            437            2501           331            1.1553826e-12
       114   19.365947           3724   382            437            2571           334            1.1747236e-12
       115   19.732779           3808   380            437            2654           337            1.1947609e-12
       116   20.099527           3898   380            437            2742           339            1.2153425e-12
       117   20.416633           4007   379            437            2849           342            1.2359169e-12
       118   20.716835           4079   379            437            2916           347            1.2562225e-12
       119   21.040206           4160   379            437            2994           350            1.2760623e-12
       120   21.419519           4245   379            437            3078           351            1.2954631e-12
       121   21.739103           4341   379            437            3174           351            1.3148262e-12
       122   22.085946           4428   379            437            3261           351            1.3338857e-12
       123   22.432521           4530   379            436            3359           356            1.3530041e-12
       124   22.793795           4607   379            436            3435           357            1.3720295e-12
       125   23.149969           4695   379            436            3520           360            1.3910775e-12
       126   23.507794           4777   379            436            3602           360            1.4102635e-12
       127   23.906927           4871   379            436            3692           364            1.4296203e-12
       128   24.298231           4947   379            436            3767           365            1.4495626e-12
       129   24.687302           5031   379            436            3848           368            1.4696505e-12
       130   25.109031           5115   379            436            3926           374            1.4900967e-12
       131   25.50988            5209   379            436            4018           376            1.5111518e-12
       132   25.900603           5294   379            436            4102           377            1.5325112e-12
       133   26.290155           5393   379            436            4196           382            1.5542254e-12
       134   26.683473           5492   379            436            4290           387            1.5760928e-12
       135   27.071655           5597   379            436            4384           398            1.5981888e-12
       136   27.47612            5706   379            436            4482           409            1.6204911e-12
       137   27.875061           5802   379            436            4570           417            1.6432749e-12
       138   28.293421           5908   379            436            4667           426            1.6667203e-12
       139   28.705265           6021   379            436            4768           438            1.6910891e-12
       140   29.131917           6150   379            436            4887           448            1.7160762e-12
       141   29.534173           6256   379            436            4984           457            1.7418506e-12
       142   29.938351           6368   379            436            5089           464            1.7683239e-12
       143   30.351193           6513   379            436            5224           474            1.7953875e-12
       144   30.758547           6646   379            436            5336           495            1.8233896e-12
       145   31.163208           6784   379            436            5459           510            1.8516015e-12
       146   31.584612           6898   379            436            5549           534            1.8797295e-12
       147   32.013329           7050   379            436            5683           552            1.9078311e-12
       148   32.444964           7196   379            436            5810           571            1.9356815e-12
       149   32.875718           7320   379            436            5902           603            1.9633442e-12
       150   33.356513           7456   379            436            6011           630            1.9910769e-12
       151   33.789049           7588   379            436            6107           666            2.0193689e-12
       152   34.237182           7750   379            436            6222           713            2.0480311e-12
       153   34.691462           7906   379            436            6340           751            2.0776636e-12
       154   35.164446           8057   379            436            6440           802            2.1079605e-12
       155   35.649156           8202   379            436            6537           850            2.1396937e-12
       156   36.110874           8344   379            435            6628           902            2.1724453e-12
       157   36.582178           8522   379            434            6754           955            2.2057627e-12
       158   37.059927           8668   379            434            6843           1012           2.2399826e-12
       159   37.539905           8820   379            433            6923           1085           2.2742469e-12
       160   38.052865           8995   379            433            7025           1158           2.3087329e-12
       161   38.531081           9160   379            433            7127           1221           2.3435711e-12
       162   39.024146           9321   379            433            7208           1301           2.378884e-12 
       163   39.531647           9467   379            433            7294           1361           2.4158016e-12
       164   40.047953           9669   379            433            7417           1440           2.4548452e-12
       165   40.542592           9858   379            433            7562           1484           2.4958678e-12
       166   41.059461          10049   379            433            7688           1549           2.5390772e-12
       167   41.564541          10249   379            433            7840           1597           2.5839601e-12
       168   42.078181          10439   379            432            7982           1646           2.6299881e-12
       169   42.579986          10638   379            432            8121           1706           2.6772497e-12
       170   43.128292          10850   379            432            8292           1747           2.7252747e-12
       171   43.661821          11071   379            432            8463           1797           2.7741366e-12
       172   44.219089          11276   379            431            8633           1833           2.8231943e-12
       173   44.789596          11508   379            430            8823           1876           2.8733673e-12
       174   45.365888          11754   379            429            9010           1936           2.926598e-12 
       175   45.957427          11995   379            429            9195           1992           2.9828627e-12
       176   46.560166          12286   379            429            9436           2042           3.0421367e-12
       177   47.17959           12545   378            429            9638           2100           3.1045731e-12
       178   47.802633          12831   378            429            9871           2153           3.1693496e-12
       179   48.43212           13102   378            428            10105          2191           3.2359324e-12
       180   49.118054          13375   378            428            10343          2226           3.3033226e-12
       181   49.81307           13670   377            428            10591          2274           3.3735804e-12
       182   50.595728          13967   377            426            10844          2320           3.4493168e-12
       183   51.395324          14312   377            426            11154          2355           3.5326609e-12
       184   52.338634          14645   377            425            11448          2395           3.624263e-12 
       185   53.289621          15024   377            424            11778          2445           3.7235436e-12
       186   54.227097          15424   377            424            12116          2507           3.8317421e-12
       187   55.326717          15821   377            422            12440          2582           3.9445888e-12
       188   56.463896          16242   377            422            12781          2662           4.0614574e-12
       189   57.859125          16688   377            422            13154          2735           4.1877165e-12
       190   59.326946          17120   377            422            13502          2819           4.3175339e-12
       191   60.843277          17604   377            422            13908          2897           4.4478115e-12
       192   62.537575          18036   377            419            14242          2998           4.5682758e-12
       193   64.390624          18484   377            419            14606          3082           4.695962e-12 
       194   66.262172          18991   377            417            15013          3184           4.8295671e-12
       195   68.180579          19459   377            413            15397          3272           4.9642349e-12
       196   70.139093          19966   377            413            15807          3369           5.1052628e-12
       197   72.18838           20509   376            413            16258          3462           5.2464565e-12
       198   74.266394          21027   376            413            16672          3566           5.3876878e-12
       199   76.408829          21578   375            413            17115          3675           5.5349165e-12
       200   78.708347          22095   374            412            17532          3777           5.6684739e-12
       201   80.985084          22594   374            411            17907          3902           5.8176059e-12
       202   83.309819          23177   374            411            18372          4020           5.9752318e-12
       203   85.636087          23760   374            411            18852          4123           6.1389148e-12
       204   87.975658          24373   373            409            19357          4234           6.3082306e-12
       205   90.369964          25040   373            408            19889          4370           6.4742854e-12
       206   92.785524          25692   373            406            20437          4476           6.6548354e-12
       207   95.243269          26292   373            405            20906          4608           6.8233843e-12
       208   97.705998          26996   373            402            21484          4737           7.007711e-12 
       209   100.19087          27655   373            400            22020          4862           7.1855744e-12
       210   102.76048          28330   373            394            22558          5005           7.3687557e-12
       211   105.28746          29167   373            391            23256          5147           7.5915777e-12
       212   107.80398          29841   372            390            23785          5294           7.7835925e-12
       213   110.31797          30651   371            384            24437          5459           7.9954818e-12
       214   112.8508           31427   369            383            25050          5625           8.1990365e-12
       215   115.37553          32157   365            379            25639          5774           8.3996368e-12
       216   117.89531          32979   363            371            26302          5943           8.6031186e-12
       217   120.43377          33729   357            365            26877          6130           8.7926128e-12
       218   122.98895          34567   353            357            27517          6340           8.9981039e-12
       219   125.5425           35308   348            356            28060          6544           9.1992878e-12
       220   128.22578          36199   338            350            28747          6764           9.4208363e-12
       221   130.84711          36967   334            341            29247          7045           9.6193732e-12
       222   133.43581          37751   328            329            29756          7338           9.7934488e-12
       223   136.03953          38550   316            320            30338          7576           9.9820394e-12
       224   138.67843          39341   301            310            30862          7868           1.0171485e-11
       225   141.32214          40099   288            295            31372          8144           1.0340762e-11
       226   144.00079          40917   273            279            31919          8446           1.0524858e-11
       227   146.67785          41732   266            255            32476          8735           1.0677287e-11
       228   149.35045          42392   248            237            32857          9050           1.0815042e-11
       229   152.05183          43094   227            215            33283          9369           1.0926003e-11
       230   154.86482          43797   204            198            33706          9689           1.1060122e-11
       231   157.59207          44488   182            177            34147          9982           1.1185561e-11
       232   160.32623          45117   157            158            34534          10268          1.1261302e-11
       233   163.05943          45694   134            140            34875          10545          1.1350811e-11
       234   165.78862          46329   108            127            35275          10819          1.142874e-11 
       235   168.54996          46818   85             104            35574          11055          1.1475402e-11
       236   171.36848          47356   78             82             35938          11258          1.1525025e-11
       237   174.18622          47941   64             64             36323          11490          1.1572603e-11
       238   177.05998          48526   47             48             36726          11705          1.1626667e-11
       239   179.95319          49073   34             35             37089          11915          1.168437e-11 
       240   182.96843          49581   24             29             37410          12118          1.173227e-11 
       241   185.86891          49986   20             22             37602          12342          1.1746136e-11
       242   188.8106           50670   15             12             38055          12588          1.1794907e-11
       243   191.79676          51129   10             11             38270          12838          1.1836028e-11
       244   194.80329          51541   6              6              38452          13077          1.1831305e-11
       245   197.7844           51979   4              4              38642          13329          1.1848333e-11
       246   200.79133          52426   3              3              38808          13612          1.1854207e-11
       247   203.82055          52906   2              2              38947          13955          1.1872187e-11
       248   206.89366          53198   1              1              38944          14252          1.1838927e-11
       249   209.95517          53722   0              1              39135          14586          1.1851956e-11
       250   213.14634          54180   0              1              39277          14902          1.1871491e-11
       251   216.23195          54506   0              1              39287          15218          1.183854e-11 
       252   219.33161          54887   0              0              39312          15575          1.1828983e-11
       253   222.48159          55342   0              0              39433          15909          1.1832773e-11
       254   225.66402          55742   0              0              39529          16213          1.1829504e-11
       255   228.84154          56170   0              0              39630          16540          1.1845999e-11
       256   232.04521          56460   0              0              39614          16846          1.1799661e-11
       257   235.29137          56910   0              0              39777          17133          1.1794176e-11
       258   238.5468           57225   0              0              39813          17412          1.1806151e-11
       259   241.81211          57632   0              0              39943          17689          1.1782367e-11
       260   245.19057          57969   0              0              39980          17989          1.1786022e-11
       261   248.45152          58370   0              0              40103          18267          1.1767378e-11
       262   251.7514           58802   0              0              40200          18602          1.1772219e-11
       263   255.03435          59220   0              0              40321          18899          1.1790944e-11
       264   258.32002          59491   0              0              40284          19207          1.1780034e-11
       265   261.62775          59776   0              0              40274          19502          1.1750856e-11
       266   264.95951          60185   0              0              40380          19805          1.1751992e-11
       267   268.3277           60495   0              0              40397          20098          1.1720134e-11
       268   271.67849          60877   0              0              40477          20400          1.1713089e-11
       269   275.07566          61247   0              0              40522          20725          1.1717104e-11
       270   278.7302           61621   0              0              40569          21052          1.1725004e-11
       271   282.2292           61938   0              0              40521          21417          1.1708485e-11
       272   285.72456          62384   0              0              40619          21765          1.1749984e-11
       273   289.23455          62669   0              0              40534          22135          1.171026e-11 
       274   292.77079          63048   0              0              40563          22485          1.1713663e-11
       275   296.35449          63387   0              0              40582          22805          1.1701545e-11
       276   299.96862          63649   0              0              40492          23157          1.1689213e-11
       277   303.60529          63977   0              0              40454          23523          1.1698883e-11
       278   307.23449          64400   0              0              40519          23881          1.1698069e-11
       279   310.9106           64658   0              0              40383          24275          1.1682295e-11
       280   314.79464          65007   0              0              40351          24656          1.1675971e-11
       281   318.52298          65340   0              0              40235          25105          1.1663723e-11
       282   322.24352          65669   0              0              40125          25544          1.1694902e-11
       283   326.0133           65992   0              0              39945          26047          1.1689052e-11
       284   329.70006          66352   0              0              39880          26472          1.1706776e-11
       285   333.54029          66705   0              0              39797          26908          1.1696561e-11
       286   337.32062          67054   0              0              39686          27368          1.1706741e-11
       287   341.04511          67405   0              0              39537          27868          1.1733389e-11
       288   344.95972          67689   0              0              39374          28315          1.1716897e-11
       289   348.91102          68009   0              0              39234          28775          1.1716674e-11
       290   353.03335          68317   0              0              39037          29280          1.170341e-11 
       291   357.02216          68619   0              0              38870          29749          1.1712073e-11
       292   361.05724          68918   0              0              38722          30196          1.1697683e-11
       293   365.08372          69231   0              0              38561          30670          1.1717946e-11
       294   369.04293          69602   0              0              38468          31134          1.1729928e-11
       295   373.16893          69890   0              0              38272          31618          1.1734053e-11
       296   377.1592           70256   0              0              38154          32102          1.1748374e-11
       297   381.12664          70580   0              0              38026          32554          1.1776108e-11
       298   385.16444          70873   0              0              37897          32976          1.1778816e-11
       299   389.2208           71194   0              0              37728          33466          1.1781956e-11
       300   393.50029          71563   0              0              37627          33936          1.1790956e-11
       301   397.74315          71817   0              0              37433          34384          1.178366e-11 
       302   401.91817          72084   0              0              37259          34825          1.1796561e-11
       303   406.05722          72377   0              0              37147          35230          1.1796614e-11
       304   410.23366          72712   0              0              37098          35614          1.179969e-11 
       305   414.37342          73048   0              0              37041          36007          1.1828635e-11
       306   418.6383           73349   0              0              36899          36450          1.1827546e-11
       307   422.95284          73609   0              0              36757          36852          1.1820953e-11
       308   427.27608          73860   0              0              36612          37248          1.1820215e-11
       309   431.49034          74215   0              0              36593          37622          1.1840247e-11
       310   435.89616          74551   0              0              36538          38013          1.186394e-11 
       311   440.1858           74837   0              0              36456          38381          1.186466e-11 
       312   444.43149          75174   0              0              36438          38736          1.188006e-11 
       313   448.74806          75488   0              0              36381          39107          1.1902819e-11
       314   453.14395          75718   0              0              36251          39467          1.1907131e-11
       315   457.51375          76042   0              0              36247          39795          1.1915417e-11
       316   461.90985          76409   0              0              36248          40161          1.1940504e-11
       317   466.31339          76733   0              0              36245          40488          1.1950584e-11
       318   470.81391          77020   0              0              36172          40848          1.1955979e-11
       319   475.29029          77292   0              0              36091          41201          1.196764e-11 
       320   479.99579          77578   0              0              36042          41536          1.2003815e-11
Loop time of 479.996 on 16 procs for 320 steps with 77578 atoms

97.9% CPU use with 16 MPI tasks x 1 OpenMP threads

MPI task timing breakdown:
Section |  min time  |  avg time  |  max time  |%varavg| %total
---------------------------------------------------------------
Pair    | 89.917     | 123.75     | 184.17     | 301.1 | 25.78
Neigh   | 15.75      | 30.783     | 63.801     | 316.9 |  6.41
Comm    | 64.067     | 80.851     | 104.67     | 171.5 | 16.84
Output  | 2.584      | 2.5841     | 2.5844     |   0.0 |  0.54
Modify  | 119.18     | 223.96     | 285.7      | 401.5 | 46.66
Other   |            | 18.07      |            |       |  3.76

Nlocal:        4848.62 ave        8023 max        3448 min
Histogram: 5 7 0 0 0 0 0 0 0 4
Nghost:        3943.12 ave        6520 max        2678 min
Histogram: 4 5 3 0 0 0 0 0 1 3
Neighs:        36796.3 ave       45830 max       30520 min
Histogram: 4 0 3 5 0 0 0 0 0 4

Total # of neighbors = 588741
Ave neighs/atom = 7.5890201
Neighbor list builds = 4373
Dangerous builds = 370

Total wall time: 0:08:02
