LAMMPS (23 Jun 2022 - Update 4)
  using 1 OpenMP thread(s) per MPI task
package omp 0
using multi-threaded neighbor list subroutines
#-----------------------------------------------------------------------------#
#                NUFEB Simulation: Heterotrophic Biofilm Growth               #
#-----------------------------------------------------------------------------#


#-----------------------------System Settings---------------------------------#

units si                                    # using si units (m, s, kg)
atom_style      coccus                      # using nufeb coccus atom style
atom_modify     map array sort 10 0         # map array - find atoms using indices
		                            # sort every 10

boundary        pp pp ff                    # periodic boundaries in x and y
                                            # fixed boundary in z

newton          off                         # forces between local and ghost
                                            # atoms are computed in each
					     # processor without communication

processors      * * 1                       # processor grid

comm_modify     vel yes                     # communicate velocities for ghost atoms

read_data       atom_ch.in	             # read atom.in file which defines domain size
Reading data file ...
  orthogonal box = (0 0 0) to (6e-05 6e-05 6e-05)
  4 by 4 by 1 MPI processor grid
  reading atoms ...
  150 atoms
  read_data CPU = 0.021 seconds
                                            # and initial atoms


#--------------------Microbes and Functional Groups-------------------------#

group           CROSS1   type 1               # assign type 1,2 atoms to CROSS group
50 atoms in group CROSS1
group           CROSS2   type 2
50 atoms in group CROSS2
group		CHEATER  type 3
50 atoms in group CHEATER
group           dead     type 4
0 atoms in group dead

neighbor        5e-7 bin                   # setting neighbour skin distance and style

neigh_modify    check yes                  # rebuild neighbour list if any atom
                                           # had moved more than half the skin distance


#--------------------------Mesh Grid and Substrates--------------------------#

# defining grid sytle, substrate names, and grid size
grid_style      nufeb/chemostat 3 sub metab1 metab2 5e-6

# set diffusion boundary conditions and initial concentrations (liquid:kg/m3)
grid_modify     set sub      pp pp nd  1.8e-4
No /omp style for force computation currently active
grid_modify     set metab1   pp pp nd  1e-4
No /omp style for force computation currently active
grid_modify     set metab2   pp pp nd  1e-4
No /omp style for force computation currently active


#--------------------------Biological Processes-------------------------------#

# heterotrophs growth
fix growth_cross1 CROSS1 nufeb/growth/cross1 sub 3.5e-5 metab2 4e-3 metab1 growth 0.009 yield 0.6 decay 2.6e-6 metab1_exp 20

fix growth_cross2 CROSS2 nufeb/growth/cross2 sub 3.5e-5 metab1 4e-3 metab2 growth 0.009 yield 0.6 decay 2.6e-6 metab2_exp 20

fix growth_cheater CHEATER nufeb/growth/cheater sub 3.5e-5 metab1 1e-3 metab2 1e-3 growth 0.009 yield 0.6 decay 2.6e-6
# heterotrophs division, division diameter: 1.36e-6
fix div1 CROSS1 nufeb/division/coccus 1.36e-6 2603
fix div2 CROSS2 nufeb/division/coccus 1.36e-6 10106
fix div3 CHEATER nufeb/division/coccus 1.36e-6 22609

fix death1 CROSS1 nufeb/death/diameter dead 5.43e-7
fix death2 CROSS2 nufeb/death/diameter dead 5.43e-7
fix death3 CHEATER nufeb/death/diameter dead 5.43e-7

#---------------------------Physical Processes--------------------------------#

pair_style  gran/hooke/history 1e-4 NULL 1e-5 NULL 0.0 0    # pairwise interaction
pair_coeff  * *                                             # between atoms

# pairwise interaction between z-wall and atoms
fix wall all wall/gran hooke/history 1e-3 NULL 1e-4 NULL 0 0 zplane 0.0 1e-04

fix vis all viscous 1e-5                                    # viscous damping force

fix grav all gravity 9.81 vector 0.0 0.0 -1.0

fix nve all nve/limit 1e-7                                  # NVE integration with
                                                            # maximum distance limit


#---------------------------Post-Physical Processes---------------------------#

fix coeff_sub all nufeb/diffusion_coeff sub ratio 0.8       # defining diffusion coeff in the biofilm
fix coeff_metab1 all nufeb/diffusion_coeff metab1 ratio 0.8    # region is 80% of the value in liquid
fix coeff_metab2 all nufeb/diffusion_coeff metab2 ratio 0.8

#---------------------------Chemical Processes---------------------------------#

fix diff_sub all nufeb/diffusion_reaction sub 1e-9        # diffusion reaction for updating
fix diff_metab1 all nufeb/diffusion_reaction metab1 4e-9     # distribusion of substrate concentration
fix diff_metab2 all nufeb/diffusion_reaction metab2 4e-9

#--------------------------Computations and Outputs----------------------------#

variable mass equal "mass(all)"                             # total mass
variable ncross1 equal "count(CROSS1)"                      # total # of CROSS1
variable ncross2 equal "count(CROSS2)"                      # total # of CROSS2
variable ncheater equal "count(CHEATER)"
variable ndead equal "count(dead)"

shell mkdir vtk_NEPS_ch                                            # dump vtk files to /vtk folder
dump du1 all vtk 10 vtk_NEPS_ch/dump*.vtu id type diameter         # require build NUFEB with vtk option
dump du2 all grid/vtk 10 vtk_NEPS_ch/dump_%_*.vti con rea den gro

#dump du3 all movie 10 movie.avi type diameter view 80 60    # dump video
#dump_modify du3 acolor 1 blue acolor 2 lightgrey framerate 10


                                                            # dump hdf5 files to /hdf5 folder
#shell mkdir hdf5                                           # require build NUFEB with hdf5 option
#dump du3 all nufeb/hdf5 10 dump.h5 id type x y z vx vy vz fx fy fz radius conc reac

thermo_style custom step cpu atoms v_ncross1 v_ncross2 v_ncheater v_ndead v_mass     # screen and log outputs
thermo 1
thermo_modify   lost ignore

#-----------------------------------Run----------------------------------------#

# issue run command, define timesteps for physical (pairdt) and chemical (diffdt) processes
run_style nufeb diffdt 1e-4 difftol 1e-6 pairdt 1e-2 pairtol 1 pairmax 1000 diffmax 5000

timestep 12000                                               # define biological timesteps (1000s)

run 320                                                    # growing biofilm for 900x1000s
Generated 0 of 6 mixed pair_coeff terms from geometric mixing rule
Last active /omp style is pair_style gran/hooke/history/omp
Neighbor list info ...
  update every 1 steps, delay 10 steps, check yes
  max neighbors/atom: 2000, page size: 100000
  master list distance cutoff = 2.49e-06
  ghost atom cutoff = 2.49e-06
  binsize = 1.245e-06, bins = 49 49 49
  1 neighbor lists, perpetual/occasional/extra = 1 0 0
  (1) pair gran/hooke/history/omp, perpetual
      attributes: half, newton off, size, history, omp
      pair build: half/size/bin/newtoff/omp
      stencil: full/bin/3d
      bin: standard
Per MPI rank memory allocation (min/avg/max) = 11.02 | 11.02 | 11.02 Mbytes
   Step          CPU          Atoms      v_ncross1      v_ncross2      v_ncheater      v_ndead         v_mass    
         0   0                    150   50             50             50             0              1.3295396e-13
         1   0.38343904           273   96             91             86             0              1.9616795e-13
         2   0.76160257           433   149            149            135            0              2.2427224e-13
         3   1.0609575            542   173            196            173            0              2.4554839e-13
         4   1.3513428            584   187            211            186            0              2.6445939e-13
         5   1.5617169            627   198            226            203            0              2.8201711e-13
         6   1.7035223            658   207            239            212            0              2.9851472e-13
         7   1.8475486            690   216            251            223            0              3.1418608e-13
         8   2.0773455            719   224            262            233            0              3.2890231e-13
         9   2.1981769            761   239            270            252            0              3.4295037e-13
        10   5.9758065            791   248            277            266            0              3.5630205e-13
        11   6.0772753            826   255            287            284            0              3.6902821e-13
        12   6.1658797            853   260            298            295            0              3.811722e-13 
        13   6.248021             882   263            307            312            0              3.9278709e-13
        14   6.3333985            912   275            315            322            0              4.0377053e-13
        15   6.4397669            937   283            320            334            0              4.1421116e-13
        16   6.5591755            967   292            327            348            0              4.2430203e-13
        17   6.6547047           1000   298            334            368            0              4.3389069e-13
        18   6.7301991           1028   304            340            384            0              4.4306902e-13
        19   6.8327211           1050   310            347            393            0              4.5193036e-13
        20   6.9466459           1066   314            351            401            0              4.6047923e-13
        21   7.0426264           1090   318            357            415            0              4.6851876e-13
        22   7.1199168           1104   322            358            424            0              4.7611968e-13
        23   7.1909762           1138   328            367            443            0              4.833835e-13 
        24   7.2563414           1162   333            372            457            0              4.9041039e-13
        25   7.3282606           1176   335            373            468            0              4.9720322e-13
        26   7.3976453           1189   338            374            477            0              5.0375133e-13
        27   7.469295            1205   341            374            490            0              5.0997486e-13
        28   7.5223561           1224   345            374            505            0              5.1594534e-13
        29   7.5818387           1252   348            378            526            0              5.2144429e-13
        30   7.6578197           1269   354            378            537            0              5.2657442e-13
        31   7.704565            1283   360            379            544            0              5.3121768e-13
        32   7.7837098           1297   367            381            549            0              5.3561686e-13
        33   7.8399469           1309   368            387            554            0              5.3989779e-13
        34   7.8911952           1325   371            390            564            0              5.4385926e-13
        35   7.954228            1339   374            391            574            0              5.4769886e-13
        36   8.0224709           1356   378            395            583            0              5.5146766e-13
        37   8.0653459           1377   382            396            599            0              5.5514206e-13
        38   8.1241851           1392   385            399            608            0              5.5859431e-13
        39   8.1919391           1405   388            401            616            0              5.6196296e-13
        40   8.2467635           1423   388            402            633            0              5.6525601e-13
        41   8.3167716           1429   390            402            637            0              5.6842948e-13
        42   8.3874843           1438   391            402            645            0              5.7166349e-13
        43   8.476492            1454   395            403            656            0              5.7482359e-13
        44   8.5681681           1470   400            403            667            0              5.7811425e-13
        45   8.6566637           1477   400            403            674            0              5.8144301e-13
        46   8.7531035           1499   404            403            692            0              5.8486101e-13
        47   8.8701585           1511   404            404            703            0              5.8838217e-13
        48   8.9803627           1521   405            404            712            0              5.9212601e-13
        49   9.1003473           1534   407            404            723            0              5.960253e-13 
        50   9.2302395           1554   409            405            740            0              6.0015481e-13
        51   9.3575614           1561   411            405            745            0              6.0441937e-13
        52   9.4621713           1579   413            405            761            0              6.0886847e-13
        53   9.5478487           1595   413            405            777            0              6.1330369e-13
        54   9.6555925           1612   416            406            790            0              6.1769174e-13
        55   9.7579367           1627   418            406            800            3              6.2216595e-13
        56   9.8544571           1640   418            407            811            4              6.2670542e-13
        57   9.9254317           1663   421            408            830            4              6.3126886e-13
        58   10.020399           1681   421            409            846            5              6.3572743e-13
        59   10.108895           1699   422            410            862            5              6.4018425e-13
        60   10.198805           1722   423            411            879            9              6.4463574e-13
        61   10.285305           1738   424            411            893            10             6.4897232e-13
        62   10.37842            1758   426            412            903            17             6.5330781e-13
        63   10.450562           1776   426            413            913            24             6.575236e-13 
        64   10.538749           1792   429            413            919            31             6.6156946e-13
        65   10.657686           1806   429            413            931            33             6.65697e-13  
        66   10.788894           1820   430            413            936            41             6.6989991e-13
        67   10.938231           1833   431            413            940            49             6.7430816e-13
        68   11.094282           1845   431            413            944            57             6.789276e-13 
        69   11.258441           1874   435            413            963            63             6.8380772e-13
        70   11.463864           1894   435            414            975            70             6.8901697e-13
        71   11.647592           1916   437            414            989            76             6.9472176e-13
        72   11.824224           1941   439            414            1003           85             7.0053599e-13
        73   12.015837           1963   441            414            1018           90             7.0657388e-13
        74   12.175337           1986   443            414            1035           94             7.1291299e-13
        75   12.313422           2014   444            414            1051           105            7.1927738e-13
        76   12.465124           2035   445            414            1063           113            7.2553521e-13
        77   12.582356           2058   445            414            1079           120            7.317832e-13 
        78   12.700724           2079   446            414            1093           126            7.378314e-13 
        79   12.79158            2105   446            414            1115           130            7.4372659e-13
        80   12.946233           2128   447            414            1136           131            7.4936611e-13
        81   13.115264           2151   448            414            1149           140            7.5519577e-13
        82   13.290864           2173   449            414            1164           146            7.6130627e-13
        83   13.511043           2197   449            414            1184           150            7.6745345e-13
        84   13.732007           2228   450            414            1208           156            7.7430479e-13
        85   13.989999           2255   450            414            1233           158            7.8150421e-13
        86   14.277911           2290   450            414            1263           163            7.8937829e-13
        87   14.56872            2330   452            414            1299           165            7.980633e-13 
        88   14.820675           2360   452            414            1326           168            8.0742985e-13
        89   15.071765           2404   454            414            1361           175            8.171274e-13 
        90   15.313221           2438   454            414            1389           181            8.270311e-13 
        91   15.501407           2477   455            414            1420           188            8.3693462e-13
        92   15.669219           2514   455            414            1452           193            8.4661711e-13
        93   15.835602           2552   455            414            1485           198            8.5607845e-13
        94   15.971693           2584   456            414            1510           204            8.6523937e-13
        95   16.124236           2625   456            414            1545           210            8.7398703e-13
        96   16.278046           2655   457            414            1569           215            8.8251996e-13
        97   16.483318           2688   457            414            1598           219            8.9068811e-13
        98   16.776308           2727   457            414            1629           227            8.9940642e-13
        99   17.097719           2753   457            414            1650           232            9.0884358e-13
       100   17.424876           2795   457            414            1686           238            9.1902777e-13
       101   17.779393           2846   457            414            1730           245            9.298508e-13 
       102   18.129106           2888   457            414            1769           248            9.4167177e-13
       103   18.478652           2944   457            414            1822           251            9.5442324e-13
       104   18.788774           2989   457            414            1858           260            9.6783098e-13
       105   19.087908           3049   457            414            1907           271            9.8148315e-13
       106   19.394204           3099   456            414            1947           282            9.9533017e-13
       107   19.678398           3149   456            414            1990           289            1.009374e-12 
       108   19.9542             3206   456            414            2038           298            1.0234442e-12
       109   20.253102           3262   456            414            2090           302            1.037457e-12 
       110   20.563102           3331   456            414            2150           311            1.0518145e-12
       111   20.900721           3379   455            414            2195           315            1.0662e-12   
       112   21.281403           3456   455            414            2267           320            1.0811613e-12
       113   21.676403           3527   456            414            2333           324            1.0967326e-12
       114   22.109606           3599   455            414            2402           328            1.1132076e-12
       115   22.517119           3677   455            414            2473           335            1.1309602e-12
       116   22.904125           3750   454            414            2546           336            1.1497874e-12
       117   23.293932           3827   454            414            2618           341            1.1690122e-12
       118   23.662915           3905   455            414            2692           344            1.1888478e-12
       119   24.031162           3996   455            414            2783           344            1.2085229e-12
       120   24.400491           4084   455            414            2870           345            1.2282625e-12
       121   24.744728           4170   456            414            2952           348            1.2479486e-12
       122   25.074088           4248   456            414            3028           350            1.2674916e-12
       123   25.422035           4338   455            414            3117           352            1.2866676e-12
       124   25.830965           4429   455            414            3206           354            1.3057545e-12
       125   26.238031           4516   455            414            3292           355            1.3255509e-12
       126   26.648065           4601   455            414            3375           357            1.3456384e-12
       127   27.079049           4694   454            414            3465           361            1.3660974e-12
       128   27.488527           4787   454            414            3558           361            1.3875092e-12
       129   27.899329           4878   454            414            3647           363            1.4094587e-12
       130   28.357658           4984   454            413            3752           365            1.4317993e-12
       131   28.779083           5080   454            413            3843           370            1.4542501e-12
       132   29.166918           5178   454            413            3936           375            1.4765423e-12
       133   29.520321           5278   454            413            4035           376            1.4984075e-12
       134   29.860189           5388   454            412            4139           383            1.5196389e-12
       135   30.277336           5471   454            411            4220           386            1.5403487e-12
       136   30.675049           5566   454            410            4311           391            1.5614166e-12
       137   31.125654           5662   454            408            4401           399            1.5823002e-12
       138   31.582936           5765   454            407            4501           403            1.6041445e-12
       139   32.03987            5866   454            407            4600           405            1.6273995e-12
       140   32.528644           5975   454            407            4705           409            1.6520623e-12
       141   32.99013            6083   454            406            4799           424            1.6778032e-12
       142   33.459756           6185   454            406            4890           435            1.7043514e-12
       143   33.923422           6312   454            406            5002           450            1.7315437e-12
       144   34.36594            6423   454            406            5095           468            1.7590743e-12
       145   34.843348           6544   453            405            5200           486            1.7861833e-12
       146   35.333515           6661   453            405            5293           510            1.8134512e-12
       147   35.80725            6787   453            405            5397           532            1.8413744e-12
       148   36.303797           6895   453            404            5482           556            1.8696689e-12
       149   36.789917           7040   453            404            5600           583            1.8989438e-12
       150   37.303588           7194   453            403            5728           610            1.9296867e-12
       151   37.787519           7340   453            403            5833           651            1.9619188e-12
       152   38.301131           7474   452            403            5928           691            1.9957084e-12
       153   38.808183           7639   452            403            6041           743            2.031194e-12 
       154   39.329447           7776   452            403            6139           782            2.0672435e-12
       155   39.84669            7930   452            403            6249           826            2.1036492e-12
       156   40.356498           8089   452            403            6367           867            2.1401258e-12
       157   40.886702           8250   452            403            6478           917            2.1764637e-12
       158   41.438262           8421   452            403            6604           962            2.213516e-12 
       159   42.023105           8579   452            403            6711           1013           2.2513768e-12
       160   42.622206           8739   452            403            6819           1065           2.290468e-12 
       161   43.186385           8929   452            403            6960           1114           2.3323505e-12
       162   43.780957           9110   452            403            7092           1163           2.3763661e-12
       163   44.380252           9298   452            403            7220           1223           2.4217378e-12
       164   44.980288           9495   452            403            7340           1300           2.468528e-12 
       165   45.589152           9683   452            403            7463           1365           2.5161316e-12
       166   46.198318           9909   452            403            7632           1422           2.5641084e-12
       167   46.814979          10104   452            403            7775           1474           2.6134162e-12
       168   47.432424          10330   452            403            7939           1536           2.6646168e-12
       169   48.108204          10546   452            403            8100           1591           2.7167718e-12
       170   48.845136          10777   452            403            8289           1633           2.771531e-12 
       171   49.567424          11011   452            403            8473           1683           2.8299077e-12
       172   50.324299          11247   452            402            8666           1727           2.8928299e-12
       173   51.087948          11512   452            402            8883           1775           2.9585049e-12
       174   51.936149          11762   452            402            9092           1816           3.0263129e-12
       175   52.743557          12046   452            402            9331           1861           3.0980618e-12
       176   53.610678          12331   452            402            9549           1928           3.1729114e-12
       177   54.523423          12646   451            401            9810           1984           3.2516776e-12
       178   55.497972          12935   450            401            10023          2061           3.334831e-12 
       179   56.524156          13287   450            401            10321          2115           3.4239258e-12
       180   57.633333          13625   449            401            10587          2188           3.5216988e-12
       181   58.770392          14006   449            400            10920          2237           3.6272767e-12
       182   60.12442           14415   448            400            11274          2293           3.743351e-12 
       183   61.569749          14828   448            400            11638          2342           3.868462e-12 
       184   63.17478           15295   448            400            12050          2397           4.0027863e-12
       185   65.139463          15764   448            400            12461          2455           4.1405713e-12
       186   67.291244          16239   448            400            12883          2508           4.2773697e-12
       187   69.48936           16689   447            398            13276          2568           4.411197e-12 
       188   71.732297          17174   447            398            13704          2625           4.5477055e-12
       189   74.020308          17667   447            397            14122          2701           4.68901e-12  
       190   76.428722          18174   445            397            14550          2782           4.8337548e-12
       191   78.829335          18657   445            396            14964          2852           4.9808594e-12
       192   81.270252          19218   444            395            15466          2913           5.1295718e-12
       193   83.770488          19775   443            395            15974          2963           5.2821396e-12
       194   86.307982          20279   443            395            16423          3018           5.4339585e-12
       195   88.87432           20821   443            394            16915          3069           5.573915e-12 
       196   91.484317          21368   442            394            17400          3132           5.7297585e-12
       197   94.130077          21921   441            394            17864          3222           5.8894577e-12
       198   96.765875          22560   441            393            18427          3299           6.0558245e-12
       199   99.43635           23199   439            392            18962          3406           6.2322775e-12
       200   102.18173          23824   438            392            19491          3503           6.4050621e-12
       201   104.86907          24475   438            391            20051          3595           6.5881073e-12
       202   107.58442          25133   437            388            20618          3690           6.751219e-12 
       203   110.27735          25766   437            387            21146          3796           6.9284674e-12
       204   112.96196          26535   437            384            21809          3905           7.1225915e-12
       205   115.64015          27199   437            383            22364          4015           7.3086835e-12
       206   118.32325          27941   435            379            22980          4147           7.5127547e-12
       207   120.99568          28680   434            379            23567          4300           7.729717e-12 
       208   123.67714          29493   434            376            24240          4443           7.9238043e-12
       209   126.3405           30218   430            373            24797          4618           8.1182338e-12
       210   129.07773          30988   428            369            25416          4775           8.3319176e-12
       211   131.719            31772   425            361            26067          4919           8.5364793e-12
       212   134.39661          32593   422            355            26718          5098           8.7450057e-12
       213   137.0705           33397   415            350            27324          5308           8.9557257e-12
       214   139.75333          34198   405            337            27938          5518           9.1582248e-12
       215   142.43856          35034   400            335            28561          5738           9.3712772e-12
       216   145.12587          35817   394            328            29108          5987           9.5726663e-12
       217   147.86617          36651   390            323            29709          6229           9.779446e-12 
       218   150.57663          37484   378            310            30306          6490           9.9585692e-12
       219   153.29559          38240   366            298            30829          6747           1.0124075e-11
       220   156.1181           39005   349            286            31351          7019           1.02907e-11  
       221   158.82916          39789   333            267            31900          7289           1.0483744e-11
       222   161.58581          40457   317            252            32302          7586           1.0616108e-11
       223   164.35528          41199   297            238            32772          7892           1.0745323e-11
       224   167.12352          41916   281            218            33190          8227           1.0876802e-11
       225   169.89792          42556   261            197            33568          8530           1.0983331e-11
       226   172.67175          43260   237            177            33993          8853           1.1119716e-11
       227   175.4848           43821   215            157            34298          9151           1.1202211e-11
       228   178.28976          44471   185            141            34723          9422           1.1281611e-11
       229   181.12986          45070   160            117            35110          9683           1.1357058e-11
       230   184.0511           45723   142            105            35575          9901           1.1437954e-11
       231   186.89029          46229   122            90             35903          10114          1.1488394e-11
       232   189.76809          46793   96             80             36323          10294          1.1555389e-11
       233   192.63592          47298   76             70             36662          10490          1.1595416e-11
       234   195.50831          47838   60             51             37041          10686          1.1641459e-11
       235   198.4242           48366   48             39             37386          10893          1.1653702e-11
       236   201.33485          48872   39             32             37701          11100          1.1692749e-11
       237   204.25608          49349   32             21             37976          11320          1.1708351e-11
       238   207.18674          49769   29             15             38185          11540          1.1734934e-11
       239   210.14954          50182   21             11             38331          11819          1.1742505e-11
       240   213.22213          50742   17             8              38604          12113          1.1755088e-11
       241   216.22057          51207   13             5              38756          12433          1.177988e-11 
       242   219.18438          51651   9              5              38922          12715          1.1780123e-11
       243   222.20206          52076   9              5              39022          13040          1.1788023e-11
       244   225.26726          52460   8              3              39114          13335          1.1799442e-11
       245   228.3421           52875   7              0              39196          13672          1.1795603e-11
       246   231.44327          53281   7              0              39251          14023          1.1786444e-11
       247   234.59635          53689   5              0              39327          14357          1.1759434e-11
       248   237.72458          54082   5              0              39389          14688          1.1765944e-11
       249   240.89677          54457   5              0              39424          15028          1.176388e-11 
       250   244.20668          54889   5              0              39543          15341          1.1760992e-11
       251   247.45186          55268   5              0              39616          15647          1.1762059e-11
       252   250.67853          55587   5              0              39638          15944          1.1720085e-11
       253   253.95348          56018   5              0              39762          16251          1.1738091e-11
       254   257.23591          56439   5              0              39869          16565          1.1759582e-11
       255   260.54096          56831   5              0              39973          16853          1.1753997e-11
       256   263.89237          57215   5              0              40047          17163          1.1749584e-11
       257   267.29817          57589   5              0              40154          17430          1.1739287e-11
       258   270.6738           57936   5              0              40175          17756          1.17256e-11  
       259   274.10986          58272   5              0              40237          18030          1.1711747e-11
       260   277.67074          58530   5              0              40218          18307          1.168798e-11 
       261   281.10615          59045   5              0              40411          18629          1.1717568e-11
       262   284.59494          59308   5              0              40376          18927          1.1686428e-11
       263   288.06994          59698   5              0              40447          19246          1.1683606e-11
       264   291.60301          60059   5              0              40491          19563          1.167802e-11 
       265   295.18694          60320   5              0              40444          19871          1.1657513e-11
       266   298.73898          60751   5              0              40539          20207          1.1664621e-11
       267   302.36453          61063   5              0              40511          20547          1.1655029e-11
       268   305.98058          61418   5              0              40479          20934          1.1660292e-11
       269   309.63519          61735   5              0              40453          21277          1.1653661e-11
       270   313.47913          62085   5              0              40440          21640          1.1636411e-11
       271   317.17981          62481   5              0              40501          21975          1.1651833e-11
       272   320.96481          62757   5              0              40412          22340          1.1628648e-11
       273   324.66462          63173   5              0              40446          22722          1.1660567e-11
       274   328.47241          63397   5              0              40300          23092          1.1617666e-11
       275   332.23329          63756   5              0              40268          23483          1.1642818e-11
       276   335.974            64105   5              0              40208          23892          1.164213e-11 
       277   339.76237          64506   5              0              40198          24303          1.1653482e-11
       278   343.58655          64820   5              0              40071          24744          1.1642612e-11
       279   347.40772          65121   5              0              39933          25183          1.1647018e-11
       280   351.40221          65496   5              0              39830          25661          1.1662224e-11
       281   355.28798          65792   5              0              39634          26153          1.1642578e-11
       282   359.14909          66151   5              0              39518          26628          1.1658562e-11
       283   362.97297          66447   5              0              39358          27084          1.1672484e-11
       284   366.86             66776   5              0              39188          27583          1.1677929e-11
       285   370.85654          67099   5              0              39057          28037          1.1669909e-11
       286   374.89897          67412   5              0              38891          28516          1.1667088e-11
       287   378.88322          67816   5              0              38806          29005          1.1685927e-11
       288   382.85174          68069   5              0              38599          29465          1.1701175e-11
       289   386.89184          68444   5              0              38508          29931          1.1715518e-11
       290   391.15316          68681   5              0              38243          30433          1.169764e-11 
       291   395.21859          69082   5              0              38142          30935          1.173872e-11 
       292   399.46047          69358   5              0              37973          31380          1.1700091e-11
       293   403.60425          69731   5              0              37907          31819          1.1721723e-11
       294   407.79723          69991   5              0              37727          32259          1.1727572e-11
       295   412.03372          70255   5              0              37560          32690          1.1750052e-11
       296   416.25982          70650   5              0              37512          33133          1.1747275e-11
       297   420.56486          70844   5              0              37282          33557          1.1730517e-11
       298   424.85275          71189   5              0              37163          34021          1.1736988e-11
       299   429.17489          71513   5              0              37035          34473          1.1764362e-11
       300   433.67             71833   5              0              36937          34891          1.177808e-11 
       301   437.98931          72080   5              0              36792          35283          1.1773922e-11
       302   442.33634          72446   5              0              36735          35706          1.178918e-11 
       303   446.75167          72761   5              0              36652          36104          1.1790117e-11
       304   451.15649          73052   5              0              36553          36494          1.1801907e-11
       305   455.59813          73376   5              0              36526          36845          1.1822228e-11
       306   460.0574           73644   5              0              36409          37230          1.1819776e-11
       307   464.57915          73943   5              0              36313          37625          1.1841847e-11
       308   469.15973          74298   5              0              36302          37991          1.1840397e-11
       309   473.74214          74620   5              0              36286          38329          1.1865201e-11
       310   478.5213           74911   5              0              36242          38664          1.1876903e-11
       311   483.1769           75238   5              0              36222          39011          1.190517e-11 
       312   487.84205          75488   5              0              36110          39373          1.1900614e-11
       313   492.52005          75814   5              0              36087          39722          1.1911818e-11
       314   497.21399          76124   5              0              36071          40048          1.1913779e-11
       315   501.97908          76423   5              0              36012          40406          1.1935007e-11
       316   506.71121          76722   5              0              36011          40706          1.1945653e-11
       317   511.46596          76979   5              0              35948          41026          1.1942284e-11
       318   516.28277          77306   5              0              35940          41361          1.1965294e-11
       319   521.14161          77577   5              0              35899          41673          1.1960876e-11
       320   526.21375          77866   5              0              35865          41996          1.1975849e-11
Loop time of 526.214 on 16 procs for 320 steps with 77866 atoms

98.0% CPU use with 16 MPI tasks x 1 OpenMP threads

MPI task timing breakdown:
Section |  min time  |  avg time  |  max time  |%varavg| %total
---------------------------------------------------------------
Pair    | 90.86      | 130.3      | 204.78     | 288.4 | 24.76
Neigh   | 16.004     | 32.149     | 76.3       | 323.8 |  6.11
Comm    | 59.1       | 76.977     | 100.33     | 145.0 | 14.63
Output  | 5.8485     | 5.856      | 5.9666     |   1.2 |  1.11
Modify  | 128.83     | 259.05     | 326.92     | 354.4 | 49.23
Other   |            | 21.89      |            |       |  4.16

Nlocal:        4866.62 ave        9279 max        3467 min
Histogram: 9 1 2 0 2 0 0 0 0 2
Nghost:        3812.69 ave        6267 max        2746 min
Histogram: 8 2 0 2 0 0 2 0 0 2
Neighs:        38495.8 ave       50912 max       31168 min
Histogram: 2 2 5 1 2 0 2 0 0 2

Total # of neighbors = 615933
Ave neighs/atom = 7.9101662
Neighbor list builds = 4481
Dangerous builds = 377

Total wall time: 0:09:14
