LAMMPS (23 Jun 2022 - Update 4)
  using 1 OpenMP thread(s) per MPI task
package omp 0
using multi-threaded neighbor list subroutines
#-----------------------------------------------------------------------------#
#                NUFEB Simulation: Heterotrophic Biofilm Growth               #
#-----------------------------------------------------------------------------#


#-----------------------------System Settings---------------------------------#

units si                                    # using si units (m, s, kg)
atom_style      coccus                      # using nufeb coccus atom style
atom_modify     map array sort 10 0         # map array - find atoms using indices
		                            # sort every 10

boundary        pp pp ff                    # periodic boundaries in x and y
                                            # fixed boundary in z

newton          off                         # forces between local and ghost
                                            # atoms are computed in each
					     # processor without communication

processors      * * 1                       # processor grid

comm_modify     vel yes                     # communicate velocities for ghost atoms

read_data       atom_ch.in	             # read atom.in file which defines domain size
Reading data file ...
  orthogonal box = (0 0 0) to (6e-05 6e-05 6e-05)
  4 by 4 by 1 MPI processor grid
  reading atoms ...
  150 atoms
  read_data CPU = 0.021 seconds
                                            # and initial atoms


#--------------------Microbes and Functional Groups-------------------------#

group           CROSS1   type 1               # assign type 1,2 atoms to CROSS group
50 atoms in group CROSS1
group           CROSS2   type 2
50 atoms in group CROSS2
group		CHEATER  type 3
50 atoms in group CHEATER
group           dead     type 4
0 atoms in group dead

neighbor        5e-7 bin                   # setting neighbour skin distance and style

neigh_modify    check yes                  # rebuild neighbour list if any atom
                                           # had moved more than half the skin distance


#--------------------------Mesh Grid and Substrates--------------------------#

# defining grid sytle, substrate names, and grid size
grid_style      nufeb/chemostat 3 sub metab1 metab2 5e-6

# set diffusion boundary conditions and initial concentrations (liquid:kg/m3)
grid_modify     set sub      pp pp nd  1.8e-4
No /omp style for force computation currently active
grid_modify     set metab1   pp pp nd  1e-4
No /omp style for force computation currently active
grid_modify     set metab2   pp pp nd  1e-4
No /omp style for force computation currently active


#--------------------------Biological Processes-------------------------------#

# heterotrophs growth
fix growth_cross1 CROSS1 nufeb/growth/cross1 sub 3.5e-5 metab2 4e-3 metab1 growth 0.009 yield 0.6 decay 2.6e-6 metab1_exp 20

fix growth_cross2 CROSS2 nufeb/growth/cross2 sub 3.5e-5 metab1 4e-3 metab2 growth 0.009 yield 0.6 decay 2.6e-6 metab2_exp 20

fix growth_cheater CHEATER nufeb/growth/cheater sub 3.5e-5 metab1 1e-3 metab2 1e-3 growth 0.009 yield 0.6 decay 2.6e-6
# heterotrophs division, division diameter: 1.36e-6
fix div1 CROSS1 nufeb/division/coccus 1.36e-6 1703
fix div2 CROSS2 nufeb/division/coccus 1.36e-6 6506
fix div3 CHEATER nufeb/division/coccus 1.36e-6 14509

fix death1 CROSS1 nufeb/death/diameter dead 5.43e-7
fix death2 CROSS2 nufeb/death/diameter dead 5.43e-7
fix death3 CHEATER nufeb/death/diameter dead 5.43e-7

#---------------------------Physical Processes--------------------------------#

pair_style  gran/hooke/history 1e-4 NULL 1e-5 NULL 0.0 0    # pairwise interaction
pair_coeff  * *                                             # between atoms

# pairwise interaction between z-wall and atoms
fix wall all wall/gran hooke/history 1e-3 NULL 1e-4 NULL 0 0 zplane 0.0 1e-04

fix vis all viscous 1e-5                                    # viscous damping force

fix grav all gravity 9.81 vector 0.0 0.0 -1.0

fix nve all nve/limit 1e-7                                  # NVE integration with
                                                            # maximum distance limit


#---------------------------Post-Physical Processes---------------------------#

fix coeff_sub all nufeb/diffusion_coeff sub ratio 0.8       # defining diffusion coeff in the biofilm
fix coeff_metab1 all nufeb/diffusion_coeff metab1 ratio 0.8    # region is 80% of the value in liquid
fix coeff_metab2 all nufeb/diffusion_coeff metab2 ratio 0.8

#---------------------------Chemical Processes---------------------------------#

fix diff_sub all nufeb/diffusion_reaction sub 1e-9        # diffusion reaction for updating
fix diff_metab1 all nufeb/diffusion_reaction metab1 4e-9     # distribusion of substrate concentration
fix diff_metab2 all nufeb/diffusion_reaction metab2 4e-9

#--------------------------Computations and Outputs----------------------------#

variable mass equal "mass(all)"                             # total mass
variable ncross1 equal "count(CROSS1)"                      # total # of CROSS1
variable ncross2 equal "count(CROSS2)"                      # total # of CROSS2
variable ncheater equal "count(CHEATER)"
variable ndead equal "count(dead)"

shell mkdir vtk_NEPS_ch                                            # dump vtk files to /vtk folder
dump du1 all vtk 10 vtk_NEPS_ch/dump*.vtu id type diameter         # require build NUFEB with vtk option
dump du2 all grid/vtk 10 vtk_NEPS_ch/dump_%_*.vti con rea den gro

#dump du3 all movie 10 movie.avi type diameter view 80 60    # dump video
#dump_modify du3 acolor 1 blue acolor 2 lightgrey framerate 10


                                                            # dump hdf5 files to /hdf5 folder
#shell mkdir hdf5                                           # require build NUFEB with hdf5 option
#dump du3 all nufeb/hdf5 10 dump.h5 id type x y z vx vy vz fx fy fz radius conc reac

thermo_style custom step cpu atoms v_ncross1 v_ncross2 v_ncheater v_ndead v_mass     # screen and log outputs
thermo 1
thermo_modify   lost ignore

#-----------------------------------Run----------------------------------------#

# issue run command, define timesteps for physical (pairdt) and chemical (diffdt) processes
run_style nufeb diffdt 1e-4 difftol 1e-6 pairdt 1e-2 pairtol 1 pairmax 1000 diffmax 5000

timestep 12000                                               # define biological timesteps (1000s)

run 320                                                    # growing biofilm for 900x1000s
Generated 0 of 6 mixed pair_coeff terms from geometric mixing rule
Last active /omp style is pair_style gran/hooke/history/omp
Neighbor list info ...
  update every 1 steps, delay 10 steps, check yes
  max neighbors/atom: 2000, page size: 100000
  master list distance cutoff = 2.49e-06
  ghost atom cutoff = 2.49e-06
  binsize = 1.245e-06, bins = 49 49 49
  1 neighbor lists, perpetual/occasional/extra = 1 0 0
  (1) pair gran/hooke/history/omp, perpetual
      attributes: half, newton off, size, history, omp
      pair build: half/size/bin/newtoff/omp
      stencil: full/bin/3d
      bin: standard
Per MPI rank memory allocation (min/avg/max) = 11.02 | 11.02 | 11.02 Mbytes
   Step          CPU          Atoms      v_ncross1      v_ncross2      v_ncheater      v_ndead         v_mass    
         0   0                    150   50             50             50             0              1.3295396e-13
         1   0.38488557           273   96             91             86             0              1.9616795e-13
         2   0.76966162           434   150            147            137            0              2.2416743e-13
         3   1.0849262            544   172            195            177            0              2.4578229e-13
         4   1.382359             590   181            212            197            0              2.6506804e-13
         5   1.6022228            634   195            227            212            0              2.8325433e-13
         6   1.771477             677   206            246            225            0              3.0057278e-13
         7   1.9185718            705   214            256            235            0              3.1713492e-13
         8   2.0544983            750   227            264            259            0              3.3298244e-13
         9   2.1811527            789   243            271            275            0              3.4801108e-13
        10   5.9251514            817   248            277            292            0              3.6226166e-13
        11   6.047954             852   257            289            306            0              3.758973e-13 
        12   6.1579288            890   265            300            325            0              3.8870753e-13
        13   6.2580562            921   271            311            339            0              4.009312e-13 
        14   6.3460941            948   281            318            349            0              4.1261143e-13
        15   6.4324824            982   287            322            373            0              4.2376769e-13
        16   6.5248592           1008   292            330            386            0              4.3431842e-13
        17   6.6111568           1036   298            335            403            0              4.4439727e-13
        18   6.6836818           1060   307            339            414            0              4.5395427e-13
        19   6.749358            1083   312            344            427            0              4.6296692e-13
        20   6.8347349           1112   315            351            446            0              4.7155262e-13
        21   6.9244825           1134   317            353            464            0              4.7974881e-13
        22   6.9842691           1150   321            355            474            0              4.8754441e-13
        23   7.0455616           1167   326            358            483            0              4.9502932e-13
        24   7.110038            1190   329            364            497            0              5.0218838e-13
        25   7.172142            1206   331            364            511            0              5.0909329e-13
        26   7.2261112           1221   332            365            524            0              5.1570357e-13
        27   7.2961979           1240   336            368            536            0              5.2196493e-13
        28   7.348959            1256   339            370            547            0              5.2786694e-13
        29   7.4055349           1276   343            374            559            0              5.3354614e-13
        30   7.4828376           1298   347            378            573            0              5.390466e-13 
        31   7.5478717           1319   349            381            589            0              5.4432931e-13
        32   7.6110748           1334   350            383            601            0              5.4946224e-13
        33   7.670933            1348   351            383            614            0              5.5441241e-13
        34   7.7348879           1367   354            385            628            0              5.5919062e-13
        35   7.7907129           1387   354            389            644            0              5.6386954e-13
        36   7.8475829           1399   357            389            653            0              5.683396e-13 
        37   7.9330228           1409   360            391            658            0              5.7264168e-13
        38   7.9916401           1420   360            392            668            0              5.7710042e-13
        39   8.056869            1437   362            392            683            0              5.8129134e-13
        40   8.1348129           1452   362            393            697            0              5.8543233e-13
        41   8.2166649           1464   364            394            706            0              5.8937727e-13
        42   8.3080585           1480   367            397            716            0              5.9337438e-13
        43   8.4036264           1493   368            397            728            0              5.9742579e-13
        44   8.4917549           1513   370            397            746            0              6.0151732e-13
        45   8.5978162           1525   370            398            757            0              6.0570395e-13
        46   8.6925005           1539   370            398            771            0              6.0994474e-13
        47   8.8183519           1553   371            399            783            0              6.1425329e-13
        48   8.9095995           1570   372            401            797            0              6.1875865e-13
        49   9.0245279           1583   373            402            808            0              6.2321079e-13
        50   9.1334136           1600   376            403            821            0              6.2773669e-13
        51   9.2349591           1620   378            403            839            0              6.3220542e-13
        52   9.3385775           1640   378            405            857            0              6.3658363e-13
        53   9.4681036           1657   380            406            871            0              6.4099869e-13
        54   9.572027            1679   381            406            891            1              6.4561843e-13
        55   9.6575819           1694   381            408            903            2              6.502667e-13 
        56   9.744575            1716   381            409            924            2              6.5486672e-13
        57   9.8450617           1735   381            409            942            3              6.5933768e-13
        58   9.9414373           1755   382            410            958            5              6.638317e-13 
        59   10.022266           1773   382            410            969            12             6.6831588e-13
        60   10.115216           1793   383            411            981            18             6.7269744e-13
        61   10.191819           1811   383            413            992            23             6.7693604e-13
        62   10.276847           1826   383            414            1001           28             6.8108572e-13
        63   10.341935           1843   384            414            1013           32             6.8520367e-13
        64   10.412852           1861   385            414            1024           38             6.8917351e-13
        65   10.483001           1874   386            414            1028           46             6.9304899e-13
        66   10.534816           1891   386            415            1033           57             6.9684393e-13
        67   10.630132           1909   386            415            1046           62             7.004764e-13 
        68   10.726142           1920   386            415            1050           69             7.0426275e-13
        69   10.805909           1935   386            415            1057           77             7.0797023e-13
        70   10.910106           1950   386            415            1063           86             7.1165409e-13
        71   11.019002           1965   387            415            1067           96             7.1527719e-13
        72   11.15285            1982   388            415            1076           103            7.1905853e-13
        73   11.314677           1993   388            415            1080           110            7.230082e-13 
        74   11.471718           2013   388            415            1091           119            7.2733025e-13
        75   11.660394           2030   389            415            1099           127            7.3197936e-13
        76   11.846205           2049   389            415            1112           133            7.3714839e-13
        77   12.049439           2076   389            415            1128           144            7.4256828e-13
        78   12.206945           2096   389            416            1146           145            7.484352e-13 
        79   12.371012           2113   389            416            1160           148            7.5431345e-13
        80   12.561379           2138   389            416            1180           153            7.6030658e-13
        81   12.721639           2163   389            417            1199           158            7.6646548e-13
        82   12.856308           2186   389            418            1215           164            7.7264593e-13
        83   12.979041           2219   389            418            1240           172            7.7872186e-13
        84   13.095747           2243   389            418            1260           176            7.8465227e-13
        85   13.248556           2266   389            419            1276           182            7.9041127e-13
        86   13.396058           2290   389            419            1296           186            7.9642315e-13
        87   13.570219           2313   389            420            1311           193            8.0235006e-13
        88   13.791018           2352   389            421            1344           198            8.0860811e-13
        89   14.044856           2382   389            423            1367           203            8.1511432e-13
        90   14.331805           2405   389            423            1384           209            8.2237299e-13
        91   14.604159           2435   389            423            1409           214            8.3021541e-13
        92   14.882677           2465   389            423            1438           215            8.3861984e-13
        93   15.121015           2500   389            423            1472           216            8.4756168e-13
        94   15.347652           2532   389            423            1500           220            8.5668877e-13
        95   15.563683           2572   389            423            1532           228            8.6598869e-13
        96   15.747938           2605   389            423            1557           236            8.7514964e-13
        97   15.930574           2647   390            423            1591           243            8.8420742e-13
        98   16.091142           2675   390            423            1614           248            8.9307347e-13
        99   16.254598           2714   390            423            1650           251            9.0169601e-13
       100   16.462025           2745   390            423            1672           260            9.1023013e-13
       101   16.724575           2777   390            423            1698           266            9.1895922e-13
       102   17.106919           2821   390            423            1733           275            9.2849663e-13
       103   17.457633           2866   390            423            1772           281            9.3920784e-13
       104   17.836019           2924   390            423            1826           285            9.5118923e-13
       105   18.215781           2972   390            423            1869           290            9.6438538e-13
       106   18.594673           3037   390            421            1929           297            9.7888981e-13
       107   18.968194           3084   390            421            1968           305            9.9456454e-13
       108   19.32215            3164   390            421            2043           310            1.0109189e-12
       109   19.60556            3218   389            421            2093           315            1.027837e-12 
       110   19.930907           3276   389            421            2146           320            1.0446147e-12
       111   20.197279           3360   389            421            2222           328            1.0614515e-12
       112   20.476388           3439   389            419            2291           340            1.0780361e-12
       113   20.772756           3502   389            419            2350           344            1.0946932e-12
       114   21.0747             3573   389            419            2416           349            1.1114151e-12
       115   21.396325           3655   388            419            2491           357            1.1280741e-12
       116   21.749663           3723   388            419            2557           359            1.1450701e-12
       117   22.130638           3799   388            419            2628           364            1.1626058e-12
       118   22.507195           3886   387            419            2714           366            1.1812247e-12
       119   22.879837           3974   386            418            2796           374            1.200353e-12 
       120   23.274984           4046   386            418            2865           377            1.2199058e-12
       121   23.626405           4140   386            418            2952           384            1.2397835e-12
       122   23.977409           4210   386            418            3018           388            1.259637e-12 
       123   24.29597            4296   386            417            3104           389            1.2795269e-12
       124   24.617409           4394   385            417            3197           395            1.298976e-12 
       125   24.882266           4479   385            417            3278           399            1.3181515e-12
       126   25.150976           4564   385            417            3357           405            1.3365168e-12
       127   25.396801           4645   385            417            3435           408            1.3543065e-12
       128   25.705354           4735   385            417            3520           413            1.3714833e-12
       129   26.089864           4819   385            417            3598           419            1.3888382e-12
       130   26.494792           4896   385            417            3665           429            1.4067382e-12
       131   26.882449           4999   385            417            3765           432            1.4252355e-12
       132   27.279622           5088   385            417            3849           437            1.4443132e-12
       133   27.671434           5170   385            416            3926           443            1.4643893e-12
       134   28.072502           5256   385            416            4006           449            1.4850814e-12
       135   28.466587           5338   385            416            4080           457            1.5064412e-12
       136   28.862677           5419   385            416            4155           463            1.527835e-12 
       137   29.217307           5526   385            416            4257           468            1.5492675e-12
       138   29.561479           5627   385            416            4355           471            1.5703836e-12
       139   29.940609           5709   385            416            4427           481            1.5911199e-12
       140   30.342108           5800   385            415            4509           491            1.6120927e-12
       141   30.736031           5902   385            415            4595           507            1.6329228e-12
       142   31.135507           5993   385            415            4679           514            1.6542023e-12
       143   31.562127           6098   385            415            4774           524            1.6763024e-12
       144   31.983362           6214   385            415            4879           535            1.7002255e-12
       145   32.38701            6341   385            415            4996           545            1.7260718e-12
       146   32.803215           6454   384            415            5090           565            1.7527317e-12
       147   33.211745           6565   384            415            5185           581            1.7805599e-12
       148   33.603339           6687   384            415            5287           601            1.8092519e-12
       149   34.016082           6825   384            415            5407           619            1.8377907e-12
       150   34.455314           6947   384            415            5505           643            1.8664911e-12
       151   34.875957           7093   384            415            5625           669            1.8952729e-12
       152   35.295306           7237   384            415            5742           696            1.9242467e-12
       153   35.767384           7383   384            415            5857           727            1.9538563e-12
       154   36.207443           7523   384            415            5945           779            1.9843148e-12
       155   36.639131           7664   384            415            6033           832            2.0159967e-12
       156   37.094276           7819   384            415            6155           865            2.048992e-12 
       157   37.542869           7980   383            415            6264           918            2.0836832e-12
       158   37.992338           8155   383            415            6393           964            2.1193109e-12
       159   38.449809           8309   383            415            6480           1031           2.1553397e-12
       160   38.939397           8471   383            415            6594           1079           2.1917487e-12
       161   39.409337           8649   383            415            6715           1136           2.2282092e-12
       162   39.880494           8795   383            415            6812           1185           2.2642927e-12
       163   40.367948           8967   383            415            6930           1239           2.3005141e-12
       164   40.88316            9157   383            415            7066           1293           2.3378403e-12
       165   41.414771           9311   383            415            7166           1347           2.3764541e-12
       166   41.95011            9498   383            414            7313           1388           2.4175717e-12
       167   42.469333           9684   383            414            7448           1439           2.4609323e-12
       168   42.98929            9859   383            414            7569           1493           2.5052413e-12
       169   43.537969          10095   382            414            7745           1554           2.5514135e-12
       170   44.123483          10286   382            414            7869           1621           2.5984083e-12
       171   44.690816          10460   380            414            7978           1688           2.646064e-12 
       172   45.278316          10674   380            414            8145           1735           2.6940847e-12
       173   45.89379           10877   380            413            8297           1787           2.744087e-12 
       174   46.479787          11087   379            413            8457           1838           2.7959379e-12
       175   47.121106          11333   379            412            8647           1895           2.8517979e-12
       176   47.742667          11566   379            412            8836           1939           2.910813e-12 
       177   48.368119          11819   379            412            9050           1978           2.9736686e-12
       178   48.994566          12112   379            412            9294           2027           3.0397157e-12
       179   49.684647          12377   379            411            9508           2079           3.1077398e-12
       180   50.45157           12628   379            411            9692           2146           3.1777446e-12
       181   51.294958          12911   378            411            9937           2185           3.2496701e-12
       182   52.084544          13196   377            411            10177          2231           3.3253425e-12
       183   52.823963          13542   376            411            10469          2286           3.4064775e-12
       184   53.635864          13869   376            411            10743          2339           3.4948063e-12
       185   54.499055          14223   376            411            11042          2394           3.5920824e-12
       186   55.473881          14587   376            411            11364          2436           3.6981615e-12
       187   56.679583          14991   376            411            11717          2487           3.814855e-12 
       188   57.891521          15413   376            411            12097          2529           3.939861e-12 
       189   59.105608          15853   375            411            12495          2572           4.0699473e-12
       190   60.736134          16340   374            410            12920          2636           4.2020519e-12
       191   62.466031          16841   374            409            13375          2683           4.3358296e-12
       192   64.246738          17289   374            407            13763          2745           4.46922e-12  
       193   66.068967          17751   374            406            14175          2796           4.5991622e-12
       194   67.921866          18224   374            406            14603          2841           4.740146e-12 
       195   69.841496          18740   374            406            15055          2905           4.8699684e-12
       196   71.832688          19244   374            406            15507          2957           5.013904e-12 
       197   73.855043          19751   374            406            15947          3024           5.158328e-12 
       198   75.926369          20274   374            406            16406          3088           5.3114985e-12
       199   78.069759          20795   372            406            16860          3157           5.4567954e-12
       200   80.335877          21378   372            405            17375          3226           5.6070001e-12
       201   82.583236          21917   371            405            17838          3303           5.7565029e-12
       202   84.891325          22475   371            405            18317          3382           5.9147439e-12
       203   87.197634          23037   370            402            18784          3481           6.0778425e-12
       204   89.547421          23698   370            401            19357          3570           6.2566599e-12
       205   91.923486          24312   370            400            19823          3719           6.4197191e-12
       206   94.305543          24960   370            398            20369          3823           6.5914206e-12
       207   96.731605          25674   369            397            20985          3923           6.7868059e-12
       208   99.192555          26304   368            396            21499          4041           6.9592785e-12
       209   101.66992          27015   366            396            22086          4167           7.1449566e-12
       210   104.23299          27710   364            395            22644          4307           7.3428425e-12
       211   106.72351          28480   363            393            23249          4475           7.5474312e-12
       212   109.22572          29239   362            391            23853          4633           7.756732e-12 
       213   111.73518          30020   362            389            24469          4800           7.9545053e-12
       214   114.25243          30749   362            383            25022          4982           8.1669031e-12
       215   116.78681          31523   358            381            25594          5190           8.363984e-12 
       216   119.33748          32265   356            375            26143          5391           8.5645543e-12
       217   121.86678          33137   353            374            26816          5594           8.7878858e-12
       218   124.42728          33900   351            367            27373          5809           8.9629292e-12
       219   126.95253          34748   343            365            28021          6019           9.191027e-12 
       220   129.58026          35516   334            352            28570          6260           9.38813e-12  
       221   132.12904          36328   325            342            29138          6523           9.5911753e-12
       222   134.7241           37182   317            336            29724          6805           9.7876114e-12
       223   137.28974          37987   306            324            30280          7077           9.9752005e-12
       224   139.84498          38700   295            310            30735          7360           1.0136628e-11
       225   142.43108          39496   286            297            31270          7643           1.0316304e-11
       226   145.01318          40203   269            284            31728          7922           1.0463679e-11
       227   147.62592          40978   246            264            32243          8225           1.0609626e-11
       228   150.21362          41640   229            245            32646          8520           1.0744681e-11
       229   152.84658          42289   210            231            33035          8813           1.0868647e-11
       230   155.60444          43061   187            216            33534          9124           1.1012128e-11
       231   158.2489           43735   171            198            33956          9410           1.1093035e-11
       232   160.91761          44350   147            175            34322          9706           1.1205307e-11
       233   163.58914          44995   133            151            34722          9989           1.1304387e-11
       234   166.26334          45594   112            134            35123          10225          1.1382917e-11
       235   169.00611          46212   96             106            35562          10448          1.1453085e-11
       236   171.75558          46737   75             93             35925          10644          1.150014e-11 
       237   174.54851          47321   61             67             36351          10842          1.1572057e-11
       238   177.31535          47824   57             53             36698          11016          1.1622265e-11
       239   180.12958          48305   48             36             37026          11195          1.1655096e-11
       240   183.10511          48889   38             33             37435          11383          1.1686803e-11
       241   185.97822          49366   29             26             37735          11576          1.1716954e-11
       242   188.88257          49893   20             18             38092          11763          1.1760249e-11
       243   191.81224          50287   16             15             38248          12008          1.1765908e-11
       244   194.73449          50841   12             10             38568          12251          1.1804527e-11
       245   197.69662          51282   10             6              38733          12533          1.1812531e-11
       246   200.6832           51737   6              2              38901          12828          1.1821509e-11
       247   203.70285          52173   4              2              39054          13113          1.1812745e-11
       248   206.73852          52515   4              2              39063          13446          1.1789644e-11
       249   209.78759          52983   3              1              39216          13763          1.1804522e-11
       250   212.9716           53447   3              1              39298          14145          1.1811956e-11
       251   216.08762          53879   1              1              39366          14511          1.1822538e-11
       252   219.25539          54259   1              1              39381          14876          1.1803834e-11
       253   222.43203          54671   1              1              39482          15187          1.1798316e-11
       254   225.61782          55027   1              1              39482          15543          1.1805747e-11
       255   228.82722          55420   1              1              39564          15854          1.1801815e-11
       256   232.07912          55817   1              1              39666          16149          1.1791875e-11
       257   235.35912          56284   1              1              39828          16454          1.1793483e-11
       258   238.65095          56598   1              1              39838          16758          1.1781011e-11
       259   241.98628          57041   1              1              40000          17039          1.1783608e-11
       260   245.55918          57366   1              1              39996          17368          1.1788063e-11
       261   248.92524          57684   1              1              40057          17625          1.1754459e-11
       262   252.33496          58101   1              1              40185          17914          1.1750343e-11
       263   255.76431          58486   1              1              40280          18204          1.1742896e-11
       264   259.21993          58899   1              1              40369          18528          1.1753279e-11
       265   262.70482          59242   1              1              40432          18808          1.1747749e-11
       266   266.2405           59601   1              1              40468          19131          1.1740592e-11
       267   269.81628          59915   1              1              40483          19430          1.1725681e-11
       268   273.37967          60278   1              1              40523          19753          1.1730349e-11
       269   277.0311           60629   1              1              40532          20095          1.1700277e-11
       270   280.86905          61062   1              1              40625          20435          1.171779e-11 
       271   284.584            61389   1              1              40612          20775          1.1706463e-11
       272   288.3352           61659   1              1              40545          21112          1.1679462e-11
       273   292.11334          62039   1              1              40564          21473          1.1699655e-11
       274   295.92433          62312   1              1              40514          21796          1.1677724e-11
       275   299.80255          62732   1              1              40590          22140          1.1677201e-11
       276   303.70525          63132   1              1              40627          22503          1.1681002e-11
       277   307.63391          63388   1              1              40512          22874          1.166169e-11 
       278   311.59529          63698   1              1              40448          23248          1.1656673e-11
       279   315.62676          64114   1              1              40441          23671          1.1683511e-11
       280   319.71132          64394   1              1              40326          24066          1.1666364e-11
       281   323.59695          64801   1              1              40341          24458          1.1709502e-11
       282   327.74559          65139   1              1              40253          24884          1.1676516e-11
       283   331.8985           65457   1              1              40143          25312          1.1674938e-11
       284   335.95614          65821   1              1              40034          25785          1.1695916e-11
       285   340.23518          66093   1              1              39845          26246          1.1659467e-11
       286   344.50307          66431   1              1              39729          26700          1.1674406e-11
       287   348.72666          66775   1              1              39601          27172          1.1677357e-11
       288   352.92888          67037   1              1              39373          27662          1.1685875e-11
       289   357.19073          67425   1              1              39288          28135          1.1688898e-11
       290   361.64282          67777   1              1              39123          28652          1.1713585e-11
       291   365.92173          68121   1              1              39004          29115          1.1728443e-11
       292   370.33568          68439   1              1              38841          29596          1.1721164e-11
       293   374.94821          68665   1              1              38622          30041          1.1706004e-11
       294   379.40062          69059   1              1              38592          30465          1.1717309e-11
       295   383.88828          69335   1              1              38382          30951          1.1711842e-11
       296   388.37989          69713   1              1              38277          31434          1.1730438e-11
       297   392.93364          69940   1              1              38052          31886          1.1737424e-11
       298   397.56609          70257   1              1              37925          32330          1.1728668e-11
       299   402.35357          70575   1              1              37787          32786          1.1719475e-11
       300   407.15383          70914   1              1              37644          33268          1.174011e-11 
       301   411.88574          71235   1              1              37496          33737          1.1754135e-11
       302   416.57361          71497   1              1              37357          34138          1.1753071e-11
       303   421.32591          71907   1              1              37297          34608          1.1800901e-11
       304   426.13543          72200   1              1              37145          35053          1.1796361e-11
       305   431.00753          72479   1              1              36980          35497          1.1793701e-11
       306   435.88172          72830   1              1              36929          35899          1.1819121e-11
       307   440.84107          73174   1              1              36877          36295          1.1837737e-11
       308   445.77582          73482   1              1              36795          36685          1.1852924e-11
       309   450.81948          73731   1              1              36681          37048          1.184228e-11 
       310   456.06459          74036   1              1              36625          37409          1.1845457e-11
       311   461.19536          74333   1              1              36576          37755          1.1848853e-11
       312   466.32867          74592   1              1              36467          38123          1.1855259e-11
       313   471.53131          74966   1              1              36466          38498          1.1870481e-11
       314   476.79422          75206   1              1              36369          38835          1.1862752e-11
       315   482.02767          75569   1              1              36382          39185          1.1895424e-11
       316   487.28964          75788   1              1              36257          39529          1.1915104e-11
       317   492.64182          76088   1              1              36191          39895          1.1910223e-11
       318   497.97464          76459   1              1              36220          40237          1.1922643e-11
       319   503.42705          76757   1              1              36167          40588          1.1928873e-11
       320   509.16215          76993   1              1              36059          40932          1.1921767e-11
Loop time of 509.162 on 16 procs for 320 steps with 76993 atoms

97.3% CPU use with 16 MPI tasks x 1 OpenMP threads

MPI task timing breakdown:
Section |  min time  |  avg time  |  max time  |%varavg| %total
---------------------------------------------------------------
Pair    | 104.71     | 135.88     | 188.17     | 258.7 | 26.69
Neigh   | 15.72      | 30.623     | 61.204     | 311.5 |  6.01
Comm    | 74.741     | 96.078     | 126.7      | 197.1 | 18.87
Output  | 5.9362     | 5.9364     | 5.9376     |   0.0 |  1.17
Modify  | 118.76     | 221.78     | 283.12     | 397.3 | 43.56
Other   |            | 18.87      |            |       |  3.71

Nlocal:        4812.06 ave        7872 max        3459 min
Histogram: 5 6 1 0 0 0 0 0 0 4
Nghost:        3856.94 ave        6247 max        2688 min
Histogram: 4 6 2 0 0 0 0 0 0 4
Neighs:        36787.6 ave       45496 max       30568 min
Histogram: 4 0 1 7 0 0 0 0 0 4

Total # of neighbors = 588601
Ave neighs/atom = 7.6448638
Neighbor list builds = 4370
Dangerous builds = 357

Total wall time: 0:08:57
