LAMMPS (23 Jun 2022 - Update 4)
  using 1 OpenMP thread(s) per MPI task
package omp 0
using multi-threaded neighbor list subroutines
#-----------------------------------------------------------------------------#
#                NUFEB Simulation: Heterotrophic Biofilm Growth               #
#-----------------------------------------------------------------------------#


#-----------------------------System Settings---------------------------------#

units si                                    # using si units (m, s, kg)
atom_style      coccus                      # using nufeb coccus atom style
atom_modify     map array sort 10 0         # map array - find atoms using indices
		                            # sort every 10

boundary        pp pp ff                    # periodic boundaries in x and y
                                            # fixed boundary in z

newton          off                         # forces between local and ghost
                                            # atoms are computed in each
					     # processor without communication

processors      * * 1                       # processor grid

comm_modify     vel yes                     # communicate velocities for ghost atoms

read_data       atom_ch.in	             # read atom.in file which defines domain size
Reading data file ...
  orthogonal box = (0 0 0) to (6e-05 6e-05 6e-05)
  4 by 4 by 1 MPI processor grid
  reading atoms ...
  150 atoms
  read_data CPU = 0.010 seconds
                                            # and initial atoms


#--------------------Microbes and Functional Groups-------------------------#

group           CROSS1   type 1               # assign type 1,2 atoms to CROSS group
50 atoms in group CROSS1
group           CROSS2   type 2
50 atoms in group CROSS2
group		CHEATER  type 3
50 atoms in group CHEATER
group           dead     type 4
0 atoms in group dead

neighbor        5e-7 bin                   # setting neighbour skin distance and style

neigh_modify    check yes                  # rebuild neighbour list if any atom
                                           # had moved more than half the skin distance


#--------------------------Mesh Grid and Substrates--------------------------#

# defining grid sytle, substrate names, and grid size
grid_style      nufeb/chemostat 3 sub metab1 metab2 5e-6

# set diffusion boundary conditions and initial concentrations (liquid:kg/m3)
grid_modify     set sub      pp pp nd  1.8e-4
No /omp style for force computation currently active
grid_modify     set metab1   pp pp nd  1e-4
No /omp style for force computation currently active
grid_modify     set metab2   pp pp nd  1e-4
No /omp style for force computation currently active


#--------------------------Biological Processes-------------------------------#

# heterotrophs growth
fix growth_cross1 CROSS1 nufeb/growth/cross1 sub 3.5e-5 metab2 4e-3 metab1 growth 0.009 yield 0.6 decay 2.6e-6 metab1_exp 20

fix growth_cross2 CROSS2 nufeb/growth/cross2 sub 3.5e-5 metab1 4e-3 metab2 growth 0.009 yield 0.6 decay 2.6e-6 metab2_exp 20

fix growth_cheater CHEATER nufeb/growth/cheater sub 3.5e-5 metab1 1e-3 metab2 1e-3 growth 0.009 yield 0.6 decay 2.6e-6
# heterotrophs division, division diameter: 1.36e-6
fix div1 CROSS1 nufeb/division/coccus 1.36e-6 779
fix div2 CROSS2 nufeb/division/coccus 1.36e-6 2810
fix div3 CHEATER nufeb/division/coccus 1.36e-6 6193

fix death1 CROSS1 nufeb/death/diameter dead 5.43e-7
fix death2 CROSS2 nufeb/death/diameter dead 5.43e-7
fix death3 CHEATER nufeb/death/diameter dead 5.43e-7

#---------------------------Physical Processes--------------------------------#

pair_style  gran/hooke/history 1e-4 NULL 1e-5 NULL 0.0 0    # pairwise interaction
pair_coeff  * *                                             # between atoms

# pairwise interaction between z-wall and atoms
fix wall all wall/gran hooke/history 1e-3 NULL 1e-4 NULL 0 0 zplane 0.0 1e-04

fix vis all viscous 1e-5                                    # viscous damping force

fix grav all gravity 9.81 vector 0.0 0.0 -1.0

fix nve all nve/limit 1e-7                                  # NVE integration with
                                                            # maximum distance limit


#---------------------------Post-Physical Processes---------------------------#

fix coeff_sub all nufeb/diffusion_coeff sub ratio 0.8       # defining diffusion coeff in the biofilm
fix coeff_metab1 all nufeb/diffusion_coeff metab1 ratio 0.8    # region is 80% of the value in liquid
fix coeff_metab2 all nufeb/diffusion_coeff metab2 ratio 0.8

#---------------------------Chemical Processes---------------------------------#

fix diff_sub all nufeb/diffusion_reaction sub 1e-9        # diffusion reaction for updating
fix diff_metab1 all nufeb/diffusion_reaction metab1 4e-9     # distribusion of substrate concentration
fix diff_metab2 all nufeb/diffusion_reaction metab2 4e-9

#--------------------------Computations and Outputs----------------------------#

variable mass equal "mass(all)"                             # total mass
variable ncross1 equal "count(CROSS1)"                      # total # of CROSS1
variable ncross2 equal "count(CROSS2)"                      # total # of CROSS2
variable ncheater equal "count(CHEATER)"
variable ndead equal "count(dead)"

shell mkdir vtk_NEPS_ch                                            # dump vtk files to /vtk folder
dump du1 all vtk 10 vtk_NEPS_ch/dump*.vtu id type diameter         # require build NUFEB with vtk option
dump du2 all grid/vtk 10 vtk_NEPS_ch/dump_%_*.vti con rea den gro

#dump du3 all movie 10 movie.avi type diameter view 80 60    # dump video
#dump_modify du3 acolor 1 blue acolor 2 lightgrey framerate 10


                                                            # dump hdf5 files to /hdf5 folder
#shell mkdir hdf5                                           # require build NUFEB with hdf5 option
#dump du3 all nufeb/hdf5 10 dump.h5 id type x y z vx vy vz fx fy fz radius conc reac

thermo_style custom step cpu atoms v_ncross1 v_ncross2 v_ncheater v_ndead v_mass     # screen and log outputs
thermo 1
thermo_modify   lost ignore

#-----------------------------------Run----------------------------------------#

# issue run command, define timesteps for physical (pairdt) and chemical (diffdt) processes
run_style nufeb diffdt 1e-4 difftol 1e-6 pairdt 1e-2 pairtol 1 pairmax 1000 diffmax 5000

timestep 12000                                               # define biological timesteps (1000s)

run 320                                                    # growing biofilm for 900x1000s
Generated 0 of 6 mixed pair_coeff terms from geometric mixing rule
Last active /omp style is pair_style gran/hooke/history/omp
Neighbor list info ...
  update every 1 steps, delay 10 steps, check yes
  max neighbors/atom: 2000, page size: 100000
  master list distance cutoff = 2.49e-06
  ghost atom cutoff = 2.49e-06
  binsize = 1.245e-06, bins = 49 49 49
  1 neighbor lists, perpetual/occasional/extra = 1 0 0
  (1) pair gran/hooke/history/omp, perpetual
      attributes: half, newton off, size, history, omp
      pair build: half/size/bin/newtoff/omp
      stencil: full/bin/3d
      bin: standard
Per MPI rank memory allocation (min/avg/max) = 11.02 | 11.02 | 11.02 Mbytes
   Step          CPU          Atoms      v_ncross1      v_ncross2      v_ncheater      v_ndead         v_mass    
         0   0                    150   50             50             50             0              1.3295396e-13
         1   0.3819458            273   96             91             86             0              1.9616795e-13
         2   0.75267039           432   149            147            136            0              2.2364728e-13
         3   1.0762182            539   170            197            172            0              2.4478329e-13
         4   1.3657325            587   187            213            187            0              2.6389385e-13
         5   1.5804705            627   196            226            205            0              2.8163984e-13
         6   1.734475             663   212            239            212            0              2.9833752e-13
         7   1.85392              699   224            251            224            0              3.140324e-13 
         8   1.9828034            738   234            262            242            0              3.2905171e-13
         9   2.1052825            767   244            267            256            0              3.4339137e-13
        10   2.2224083            802   254            274            274            0              3.5690377e-13
        11   2.3121747            829   261            282            286            0              3.6981864e-13
        12   2.4161715            858   270            292            296            0              3.8210208e-13
        13   2.5003668            892   275            304            313            0              3.9373194e-13
        14   2.5737905            923   282            314            327            0              4.046721e-13 
        15   2.6450079            950   286            321            343            0              4.1506093e-13
        16   2.7144558            987   298            326            363            0              4.2489978e-13
        17   2.7760759           1011   306            330            375            0              4.3430507e-13
        18   2.8368945           1027   308            333            386            0              4.4323838e-13
        19   2.8976816           1051   311            339            401            0              4.5179053e-13
        20   2.9793892           1063   316            342            405            0              4.599143e-13 
        21   3.0344057           1088   318            352            418            0              4.6753028e-13
        22   3.0841231           1105   321            358            426            0              4.747449e-13 
        23   3.1532539           1124   323            361            440            0              4.8157584e-13
        24   3.2067775           1141   325            362            454            0              4.8807149e-13
        25   3.2754544           1155   328            366            461            0              4.9423971e-13
        26   3.3249321           1174   330            370            474            0              5.0029183e-13
        27   3.3924503           1194   336            373            485            0              5.0604188e-13
        28   3.4537286           1204   336            375            493            0              5.1159795e-13
        29   3.5087932           1220   343            376            501            0              5.1691e-13   
        30   3.6191213           1244   350            378            516            0              5.2199116e-13
        31   3.6878147           1257   351            378            528            0              5.2695069e-13
        32   3.7561541           1278   354            381            543            0              5.3175046e-13
        33   3.8068725           1286   355            381            550            0              5.3623835e-13
        34   3.8581496           1298   357            384            557            0              5.4061068e-13
        35   3.9128466           1312   359            387            566            0              5.4481425e-13
        36   3.962799            1321   360            390            571            0              5.4889248e-13
        37   4.0245023           1335   361            391            583            0              5.5269608e-13
        38   4.0757624           1349   363            391            595            0              5.5640998e-13
        39   4.14587             1368   365            393            610            0              5.5995272e-13
        40   4.2472035           1381   367            394            620            0              5.6337793e-13
        41   4.2915314           1395   371            396            628            0              5.6661648e-13
        42   4.3378064           1408   373            398            637            0              5.6972062e-13
        43   4.3847402           1425   375            400            650            0              5.7266257e-13
        44   4.4276358           1430   376            402            652            0              5.7551007e-13
        45   4.4777186           1439   378            403            658            0              5.7822964e-13
        46   4.5198029           1457   379            404            674            0              5.8087154e-13
        47   4.5562871           1464   379            406            679            0              5.8340606e-13
        48   4.5952418           1474   380            407            687            0              5.8583683e-13
        49   4.634258            1486   381            409            696            0              5.8818885e-13
        50   4.7137526           1498   382            409            707            0              5.9051624e-13
        51   4.7766847           1512   385            409            718            0              5.9289281e-13
        52   4.8142541           1522   386            410            726            0              5.9518302e-13
        53   4.8670425           1532   387            412            733            0              5.9731001e-13
        54   4.9288054           1543   388            412            743            0              5.9948419e-13
        55   4.9959037           1549   389            412            748            0              6.0165937e-13
        56   5.0760413           1557   389            412            756            0              6.0383412e-13
        57   5.170482            1567   391            412            764            0              6.0618265e-13
        58   5.282383            1580   393            414            773            0              6.0873853e-13
        59   5.3839006           1590   393            414            780            3              6.1147216e-13
        60   5.557525            1601   394            414            787            6              6.1444835e-13
        61   5.6734346           1618   395            414            798            11             6.178522e-13 
        62   5.7859751           1632   396            415            804            17             6.2149356e-13
        63   5.8987015           1648   397            415            814            22             6.2529519e-13
        64   6.001196            1671   399            415            826            31             6.2928376e-13
        65   6.1141848           1687   399            415            836            37             6.333463e-13 
        66   6.2201113           1702   401            415            846            40             6.3755095e-13
        67   6.3177376           1723   401            415            860            47             6.4184432e-13
        68   6.4084563           1734   401            415            862            56             6.461453e-13 
        69   6.4985627           1756   401            415            870            70             6.5040157e-13
        70   6.5858488           1771   402            416            878            75             6.5463921e-13
        71   6.6580088           1789   402            417            892            78             6.5875127e-13
        72   6.7268122           1805   403            417            900            85             6.6275882e-13
        73   6.7941859           1822   404            417            909            92             6.6665818e-13
        74   6.8549055           1840   405            417            919            99             6.7048913e-13
        75   6.9172446           1853   405            417            926            105            6.7419507e-13
        76   7.0031278           1868   405            417            935            111            6.7778879e-13
        77   7.100495            1883   407            417            941            118            6.8143899e-13
        78   7.2329827           1901   407            417            955            122            6.8514845e-13
        79   7.3214264           1914   408            418            961            127            6.8902177e-13
        80   8.6757009           1928   409            418            967            134            6.9282423e-13
        81   8.9073935           1944   410            418            973            143            6.9695374e-13
        82   9.1267118           1956   410            418            980            148            7.0148566e-13
        83   9.3434018           1976   410            419            995            152            7.0650349e-13
        84   9.5493639           1991   411            419            1002           159            7.1199634e-13
        85   9.7313846           2010   412            419            1013           166            7.1789773e-13
        86   9.9132301           2036   412            419            1033           172            7.2400381e-13
        87   10.062012           2060   413            419            1053           175            7.302768e-13 
        88   10.201973           2079   414            419            1070           176            7.3650583e-13
        89   10.322115           2101   414            419            1089           179            7.426381e-13 
        90   13.713956           2123   414            419            1107           183            7.4859308e-13
        91   13.811759           2148   414            419            1130           185            7.5436468e-13
        92   13.903464           2165   414            419            1146           186            7.5990065e-13
        93   14.021098           2185   415            419            1163           188            7.6519407e-13
        94   14.142955           2210   415            419            1183           193            7.7049488e-13
        95   14.315777           2234   415            419            1206           194            7.7574438e-13
        96   14.547879           2256   415            419            1225           197            7.812406e-13 
        97   14.77789            2282   415            419            1247           201            7.8752546e-13
        98   15.070582           2301   415            420            1262           204            7.9415077e-13
        99   15.334683           2333   415            420            1290           208            8.018379e-13 
       100   15.630136           2365   416            420            1320           209            8.0999199e-13
       101   15.890738           2394   416            420            1342           216            8.1889113e-13
       102   16.149864           2430   416            421            1375           218            8.2797865e-13
       103   16.36039            2463   416            421            1402           224            8.3740424e-13
       104   16.555817           2495   416            422            1431           226            8.467677e-13 
       105   16.757126           2534   417            422            1467           228            8.5599048e-13
       106   16.957953           2559   417            422            1486           234            8.6517547e-13
       107   17.205558           2607   417            422            1524           244            8.74388e-13  
       108   17.459545           2647   417            422            1552           256            8.8423679e-13
       109   17.713589           2686   418            422            1582           264            8.9419917e-13
       110   18.816786           2732   418            422            1624           268            9.0452088e-13
       111   19.263328           2772   418            422            1660           272            9.1640797e-13
       112   19.625852           2820   418            422            1704           276            9.2920701e-13
       113   19.998065           2878   418            422            1756           282            9.4284487e-13
       114   20.364432           2935   418            422            1804           291            9.5772091e-13
       115   20.697175           2998   417            422            1861           298            9.7340396e-13
       116   20.993284           3066   417            422            1921           306            9.8937761e-13
       117   21.298226           3121   415            422            1972           312            1.0052801e-12
       118   21.586606           3188   415            422            2029           322            1.0212725e-12
       119   21.87268            3268   415            422            2100           331            1.0371755e-12
       120   22.150912           3328   414            422            2154           338            1.052918e-12 
       121   22.41568            3398   414            422            2218           344            1.0682803e-12
       122   22.696632           3462   414            422            2277           349            1.0835297e-12
       123   23.031889           3534   413            422            2345           354            1.0987852e-12
       124   23.401792           3597   413            422            2398           364            1.1142295e-12
       125   23.777614           3664   412            422            2463           367            1.130577e-12 
       126   24.151261           3733   412            422            2528           371            1.1475919e-12
       127   24.492824           3803   412            422            2592           377            1.1650579e-12
       128   24.865634           3883   412            422            2671           378            1.1826785e-12
       129   25.237651           3956   412            422            2740           382            1.2006956e-12
       130   25.612866           4029   412            422            2809           386            1.2190265e-12
       131   25.952118           4105   412            422            2883           388            1.2372433e-12
       132   26.259725           4191   410            422            2967           392            1.2554622e-12
       133   26.559945           4262   410            422            3034           396            1.2730586e-12
       134   26.882146           4336   410            422            3107           397            1.2902478e-12
       135   27.246564           4418   410            421            3188           399            1.3071666e-12
       136   27.648293           4500   410            421            3269           400            1.3246149e-12
       137   28.058853           4579   410            421            3346           402            1.3420988e-12
       138   28.48489            4672   410            421            3438           403            1.3604617e-12
       139   28.89807            4743   410            421            3508           404            1.3795766e-12
       140   29.342018           4832   410            421            3595           406            1.3996069e-12
       141   29.765543           4912   410            421            3675           406            1.4202216e-12
       142   30.174933           5001   410            421            3762           408            1.4413846e-12
       143   30.577223           5105   410            420            3866           409            1.4628441e-12
       144   30.987272           5192   410            420            3953           409            1.4841849e-12
       145   31.366773           5295   410            420            4056           409            1.5056889e-12
       146   31.747025           5384   410            420            4145           409            1.5268388e-12
       147   32.155075           5475   410            420            4235           410            1.5478708e-12
       148   32.543545           5578   410            420            4336           412            1.5686518e-12
       149   32.966969           5667   410            420            4425           412            1.5891485e-12
       150   33.442258           5763   410            420            4519           414            1.6099467e-12
       151   33.907337           5873   410            420            4621           422            1.6320252e-12
       152   34.351643           5980   410            419            4721           430            1.6555278e-12
       153   34.805663           6083   410            419            4820           434            1.6800908e-12
       154   35.247963           6191   410            419            4916           446            1.7055582e-12
       155   35.711852           6309   410            419            5013           467            1.7318165e-12
       156   36.153622           6417   410            419            5100           488            1.7586362e-12
       157   36.60103            6543   410            419            5194           520            1.7855674e-12
       158   37.05824            6665   410            419            5286           550            1.8122883e-12
       159   37.513704           6781   410            419            5369           583            1.838988e-12 
       160   37.999328           6894   410            419            5453           612            1.8654294e-12
       161   38.480782           7021   410            419            5540           652            1.8918132e-12
       162   38.961005           7151   410            419            5617           705            1.9185298e-12
       163   39.48046            7290   410            419            5715           746            1.9459624e-12
       164   39.972202           7426   410            419            5808           789            1.9749227e-12
       165   40.483266           7568   410            419            5897           842            2.0052726e-12
       166   40.980006           7704   410            419            5985           890            2.0368746e-12
       167   41.490075           7861   410            419            6096           936            2.0699295e-12
       168   42.010489           8006   410            419            6193           984            2.1040871e-12
       169   42.514429           8147   410            419            6283           1035           2.1392922e-12
       170   43.058278           8306   410            419            6388           1089           2.1748536e-12
       171   43.632755           8464   410            419            6487           1148           2.2106055e-12
       172   44.212923           8629   410            419            6604           1196           2.2467673e-12
       173   44.762422           8814   410            419            6738           1247           2.2841021e-12
       174   45.329858           8985   410            419            6866           1290           2.3215395e-12
       175   45.895783           9153   410            419            6986           1338           2.3600276e-12
       176   46.463873           9329   410            419            7105           1395           2.3996942e-12
       177   47.061766           9502   410            419            7221           1452           2.4405394e-12
       178   47.659798           9714   410            419            7396           1489           2.4830657e-12
       179   48.260765           9905   409            419            7551           1526           2.5266062e-12
       180   48.92111           10100   408            418            7704           1570           2.5714045e-12
       181   49.546641          10314   408            417            7874           1615           2.6179945e-12
       182   50.18188           10523   408            417            8046           1652           2.666175e-12 
       183   50.767763          10734   408            417            8217           1692           2.7157878e-12
       184   51.393219          10961   408            417            8397           1739           2.7661365e-12
       185   52.021071          11187   408            417            8559           1803           2.8183195e-12
       186   52.670684          11441   408            417            8762           1854           2.8730868e-12
       187   53.37739           11692   408            417            8959           1908           2.9302158e-12
       188   54.09707           11929   408            416            9146           1959           2.9904561e-12
       189   54.846466          12221   408            416            9381           2016           3.0532134e-12
       190   55.640931          12475   407            416            9592           2060           3.1187571e-12
       191   56.361813          12761   407            416            9815           2123           3.1863977e-12
       192   57.11244           13051   407            416            10057          2171           3.2563986e-12
       193   57.937157          13337   406            416            10304          2211           3.3276327e-12
       194   58.861742          13630   406            415            10550          2259           3.400549e-12 
       195   59.759428          13925   406            415            10798          2306           3.4763753e-12
       196   60.74642           14233   406            413            11064          2350           3.5571658e-12
       197   61.803637          14572   405            413            11358          2396           3.6454886e-12
       198   62.88397           14936   405            413            11661          2457           3.7425469e-12
       199   64.149405          15309   405            413            11971          2520           3.8473189e-12
       200   65.576355          15722   405            413            12311          2593           3.9616886e-12
       201   67.025718          16144   405            413            12670          2656           4.0848399e-12
       202   68.621304          16592   405            412            13062          2713           4.2145373e-12
       203   70.333064          17054   405            412            13469          2768           4.3493332e-12
       204   72.343824          17557   405            412            13900          2840           4.4838257e-12
       205   74.299548          18021   405            411            14292          2913           4.6163304e-12
       206   76.428666          18518   405            411            14709          2993           4.7535705e-12
       207   78.617706          19027   405            411            15158          3053           4.8910119e-12
       208   80.975216          19534   405            411            15611          3107           5.023713e-12 
       209   83.389719          20093   405            411            16089          3188           5.1731877e-12
       210   85.95127           20633   405            411            16535          3282           5.3186574e-12
       211   88.463359          21182   405            410            17004          3363           5.4645189e-12
       212   90.976516          21728   404            410            17467          3447           5.6111836e-12
       213   93.5572            22317   404            410            17980          3523           5.7615468e-12
       214   96.173065          22902   404            410            18482          3606           5.9114772e-12
       215   98.77503           23494   403            409            18975          3707           6.0709315e-12
       216   101.41903          24103   403            408            19484          3808           6.2392507e-12
       217   104.07066          24725   403            408            20019          3895           6.4032003e-12
       218   106.76312          25344   402            407            20537          3998           6.5618253e-12
       219   109.45964          26001   402            406            21086          4107           6.7395923e-12
       220   112.22132          26680   402            406            21637          4235           6.9074556e-12
       221   114.92625          27278   402            405            22098          4373           7.0701057e-12
       222   117.61331          27935   401            403            22611          4520           7.2533481e-12
       223   120.25771          28691   401            401            23204          4685           7.4386327e-12
       224   122.97984          29401   401            400            23754          4846           7.6436958e-12
       225   125.70699          30150   398            398            24327          5027           7.8351728e-12
       226   128.41953          30889   394            395            24884          5216           8.0323664e-12
       227   131.11473          31634   394            392            25435          5413           8.2287735e-12
       228   133.85364          32434   393            388            26048          5605           8.4397792e-12
       229   136.56704          33259   392            383            26656          5828           8.6334965e-12
       230   139.37168          34023   389            381            27215          6038           8.8224034e-12
       231   142.07664          34810   382            376            27750          6302           9.0275256e-12
       232   144.86918          35557   381            371            28237          6568           9.2192859e-12
       233   147.6105           36398   378            364            28823          6833           9.4210672e-12
       234   150.37353          37216   373            353            29404          7086           9.6209674e-12
       235   153.11581          38029   367            348            29964          7350           9.8142534e-12
       236   155.8397           38895   359            339            30590          7607           1.0018746e-11
       237   158.57777          39697   346            321            31114          7916           1.0207198e-11
       238   161.36358          40495   326            309            31690          8170           1.0360051e-11
       239   164.15611          41238   309            293            32159          8477           1.0511306e-11
       240   167.11998          41937   285            272            32603          8777           1.0658383e-11
       241   169.94266          42678   271            250            33110          9047           1.0797474e-11
       242   172.78222          43380   250            234            33603          9293           1.0939861e-11
       243   175.72309          44104   227            217            34086          9574           1.1050494e-11
       244   178.59214          44753   209            200            34541          9803           1.1158246e-11
       245   181.48783          45373   181            175            34958          10059          1.1252526e-11
       246   184.38594          46026   159            152            35427          10288          1.1349027e-11
       247   187.31075          46630   140            129            35839          10522          1.1439673e-11
       248   190.29059          47264   121            103            36305          10735          1.1498729e-11
       249   193.24676          47829   105            83             36650          10991          1.1562835e-11
       250   196.32109          48393   87             69             36983          11254          1.1614581e-11
       251   199.32727          48877   71             56             37214          11536          1.1651566e-11
       252   202.34451          49415   61             48             37479          11827          1.168789e-11 
       253   205.36725          49891   46             36             37657          12152          1.1717543e-11
       254   208.45029          50446   39             31             37912          12464          1.1761426e-11
       255   211.50201          50907   25             27             38091          12764          1.1781332e-11
       256   214.56751          51404   16             19             38281          13088          1.1786739e-11
       257   217.65182          51828   13             14             38418          13383          1.1799274e-11
       258   220.74644          52285   9              14             38543          13719          1.1815012e-11
       259   223.87157          52742   7              8              38715          14012          1.1845996e-11
       260   227.1289           53268   5              5              38937          14321          1.1854123e-11
       261   230.30835          53806   5              4              39181          14616          1.1883001e-11
       262   233.50751          54163   5              3              39212          14943          1.1883957e-11
       263   236.75391          54518   3              2              39261          15252          1.1884149e-11
       264   240.03628          54811   2              2              39258          15549          1.1825782e-11
       265   243.25509          55378   2              1              39518          15857          1.1872773e-11
       266   246.52863          55731   2              1              39577          16151          1.1829869e-11
       267   249.84726          56120   2              1              39645          16472          1.1843507e-11
       268   253.18429          56594   2              1              39801          16790          1.1836485e-11
       269   256.51198          56963   2              1              39871          17089          1.1851785e-11
       270   259.96837          57216   2              1              39814          17399          1.1822253e-11
       271   263.36306          57673   2              1              39970          17700          1.1825565e-11
       272   266.77292          58132   2              1              40133          17996          1.1808344e-11
       273   270.2824           58473   2              1              40161          18309          1.1802297e-11
       274   273.72345          58778   2              1              40144          18631          1.1780843e-11
       275   277.18727          59202   2              1              40234          18965          1.1807731e-11
       276   280.66132          59569   2              1              40278          19288          1.1781146e-11
       277   284.15565          59966   2              1              40351          19612          1.1792813e-11
       278   287.70063          60315   2              1              40392          19920          1.1768395e-11
       279   291.25564          60611   2              1              40373          20235          1.1761353e-11
       280   295.05922          60996   2              1              40441          20552          1.1759357e-11
       281   298.65662          61371   2              1              40518          20850          1.1740429e-11
       282   302.30633          61699   2              1              40541          21155          1.1722385e-11
       283   306.00781          62025   2              1              40540          21482          1.1716406e-11
       284   309.72482          62376   2              1              40539          21834          1.1719673e-11
       285   313.46824          62778   2              1              40622          22153          1.174567e-11 
       286   317.25894          63100   2              1              40598          22499          1.1719934e-11
       287   321.06912          63518   2              1              40653          22862          1.1728153e-11
       288   324.91213          63841   2              1              40649          23189          1.1730291e-11
       289   328.7809           64126   2              1              40558          23565          1.1707757e-11
       290   332.81045          64488   2              1              40506          23979          1.1718611e-11
       291   336.75711          64882   2              1              40509          24370          1.1729471e-11
       292   340.6634           65214   2              1              40426          24785          1.1735201e-11
       293   344.68682          65451   2              1              40249          25199          1.1706684e-11
       294   348.5713           65884   2              1              40274          25607          1.1724418e-11
       295   352.52504          66220   2              1              40194          26023          1.1730041e-11
       296   356.57302          66528   2              1              40056          26469          1.1730048e-11
       297   360.61308          66847   2              1              39914          26930          1.172469e-11 
       298   364.54729          67196   2              1              39786          27407          1.1753407e-11
       299   368.60316          67539   2              1              39672          27864          1.1734837e-11
       300   372.91994          67870   2              1              39554          28313          1.1728526e-11
       301   377.16173          68210   2              1              39433          28774          1.1734232e-11
       302   381.27587          68530   2              1              39255          29272          1.173437e-11 
       303   385.40609          68837   2              1              39133          29701          1.1752782e-11
       304   389.57488          69180   2              1              38997          30180          1.1774665e-11
       305   393.79346          69494   2              1              38828          30663          1.1767673e-11
       306   397.99001          69781   2              1              38643          31135          1.177231e-11 
       307   402.28596          70139   2              1              38533          31603          1.1764561e-11
       308   406.49536          70504   2              1              38443          32058          1.1795132e-11
       309   410.8241           70737   2              1              38206          32528          1.1779732e-11
       310   415.36989          71095   2              1              38083          33009          1.1785658e-11
       311   419.68526          71426   2              1              37949          33474          1.1814675e-11
       312   424.12967          71744   2              1              37799          33942          1.1798787e-11
       313   428.56898          71947   2              1              37592          34352          1.180861e-11 
       314   433.023            72303   2              1              37494          34806          1.182387e-11 
       315   437.53499          72598   2              1              37354          35241          1.1821617e-11
       316   442.04307          72957   2              1              37281          35673          1.1826554e-11
       317   446.55186          73262   2              1              37167          36092          1.1829082e-11
       318   451.11024          73564   2              1              37030          36531          1.1858162e-11
       319   455.68851          73901   2              1              36930          36968          1.1874338e-11
       320   460.42479          74243   2              1              36878          37362          1.1901028e-11
Loop time of 460.425 on 16 procs for 320 steps with 74243 atoms

97.7% CPU use with 16 MPI tasks x 1 OpenMP threads

MPI task timing breakdown:
Section |  min time  |  avg time  |  max time  |%varavg| %total
---------------------------------------------------------------
Pair    | 64.623     | 101.14     | 166.24     | 292.6 | 21.97
Neigh   | 10.908     | 25.286     | 65.571     | 332.7 |  5.49
Comm    | 53.861     | 70.589     | 91.077     | 138.9 | 15.33
Output  | 7.3657     | 7.3658     | 7.3661     |   0.0 |  1.60
Modify  | 120.36     | 235.27     | 297.7      | 334.9 | 51.10
Other   |            | 20.77      |            |       |  4.51

Nlocal:        4640.19 ave        9379 max        3090 min
Histogram: 8 2 2 0 2 0 0 0 0 2
Nghost:        3629.38 ave        6151 max        2478 min
Histogram: 5 5 0 2 0 0 0 2 0 2
Neighs:        33470.3 ave       45772 max       26048 min
Histogram: 2 2 4 2 2 0 2 0 0 2

Total # of neighbors = 535525
Ave neighs/atom = 7.2131379
Neighbor list builds = 4050
Dangerous builds = 365

Total wall time: 0:08:31
