LAMMPS (23 Jun 2022 - Update 4)
  using 1 OpenMP thread(s) per MPI task
package omp 0
using multi-threaded neighbor list subroutines
#-----------------------------------------------------------------------------#
#                NUFEB Simulation: Heterotrophic Biofilm Growth               #
#-----------------------------------------------------------------------------#


#-----------------------------System Settings---------------------------------#

units si                                    # using si units (m, s, kg)
atom_style      coccus                      # using nufeb coccus atom style
atom_modify     map array sort 10 0         # map array - find atoms using indices
		                            # sort every 10

boundary        pp pp ff                    # periodic boundaries in x and y
                                            # fixed boundary in z

newton          off                         # forces between local and ghost
                                            # atoms are computed in each
					     # processor without communication

processors      * * 1                       # processor grid

comm_modify     vel yes                     # communicate velocities for ghost atoms

read_data       atom_ch.in	             # read atom.in file which defines domain size
Reading data file ...
  orthogonal box = (0 0 0) to (6e-05 6e-05 6e-05)
  4 by 4 by 1 MPI processor grid
  reading atoms ...
  150 atoms
  read_data CPU = 0.029 seconds
                                            # and initial atoms


#--------------------Microbes and Functional Groups-------------------------#

group           CROSS1   type 1               # assign type 1,2 atoms to CROSS group
50 atoms in group CROSS1
group           CROSS2   type 2
50 atoms in group CROSS2
group		CHEATER  type 3
50 atoms in group CHEATER
group           dead     type 4
0 atoms in group dead

neighbor        5e-7 bin                   # setting neighbour skin distance and style

neigh_modify    check yes                  # rebuild neighbour list if any atom
                                           # had moved more than half the skin distance


#--------------------------Mesh Grid and Substrates--------------------------#

# defining grid sytle, substrate names, and grid size
grid_style      nufeb/chemostat 3 sub metab1 metab2 5e-6

# set diffusion boundary conditions and initial concentrations (liquid:kg/m3)
grid_modify     set sub      pp pp nd  1.8e-4
No /omp style for force computation currently active
grid_modify     set metab1   pp pp nd  1e-4
No /omp style for force computation currently active
grid_modify     set metab2   pp pp nd  1e-4
No /omp style for force computation currently active


#--------------------------Biological Processes-------------------------------#

# heterotrophs growth
fix growth_cross1 CROSS1 nufeb/growth/cross1 sub 3.5e-5 metab2 4e-3 metab1 growth 0.009 yield 0.6 decay 2.6e-6 metab1_exp 20

fix growth_cross2 CROSS2 nufeb/growth/cross2 sub 3.5e-5 metab1 4e-3 metab2 growth 0.009 yield 0.6 decay 2.6e-6 metab2_exp 20

fix growth_cheater CHEATER nufeb/growth/cheater sub 3.5e-5 metab1 1e-3 metab2 1e-3 growth 0.009 yield 0.6 decay 2.6e-6
# heterotrophs division, division diameter: 1.36e-6
fix div1 CROSS1 nufeb/division/coccus 1.36e-6 104
fix div2 CROSS2 nufeb/division/coccus 1.36e-6 110
fix div3 CHEATER nufeb/division/coccus 1.36e-6 118

fix death1 CROSS1 nufeb/death/diameter dead 5.43e-7
fix death2 CROSS2 nufeb/death/diameter dead 5.43e-7
fix death3 CHEATER nufeb/death/diameter dead 5.43e-7

#---------------------------Physical Processes--------------------------------#

pair_style  gran/hooke/history 1e-4 NULL 1e-5 NULL 0.0 0    # pairwise interaction
pair_coeff  * *                                             # between atoms

# pairwise interaction between z-wall and atoms
fix wall all wall/gran hooke/history 1e-3 NULL 1e-4 NULL 0 0 zplane 0.0 1e-04

fix vis all viscous 1e-5                                    # viscous damping force

fix grav all gravity 9.81 vector 0.0 0.0 -1.0

fix nve all nve/limit 1e-7                                  # NVE integration with
                                                            # maximum distance limit


#---------------------------Post-Physical Processes---------------------------#

fix coeff_sub all nufeb/diffusion_coeff sub ratio 0.8       # defining diffusion coeff in the biofilm
fix coeff_metab1 all nufeb/diffusion_coeff metab1 ratio 0.8    # region is 80% of the value in liquid
fix coeff_metab2 all nufeb/diffusion_coeff metab2 ratio 0.8

#---------------------------Chemical Processes---------------------------------#

fix diff_sub all nufeb/diffusion_reaction sub 1e-9        # diffusion reaction for updating
fix diff_metab1 all nufeb/diffusion_reaction metab1 4e-9     # distribusion of substrate concentration
fix diff_metab2 all nufeb/diffusion_reaction metab2 4e-9

#--------------------------Computations and Outputs----------------------------#

variable mass equal "mass(all)"                             # total mass
variable ncross1 equal "count(CROSS1)"                      # total # of CROSS1
variable ncross2 equal "count(CROSS2)"                      # total # of CROSS2
variable ncheater equal "count(CHEATER)"
variable ndead equal "count(dead)"

shell mkdir vtk_NEPS_ch                                            # dump vtk files to /vtk folder
dump du1 all vtk 10 vtk_NEPS_ch/dump*.vtu id type diameter         # require build NUFEB with vtk option
dump du2 all grid/vtk 10 vtk_NEPS_ch/dump_%_*.vti con rea den gro

#dump du3 all movie 10 movie.avi type diameter view 80 60    # dump video
#dump_modify du3 acolor 1 blue acolor 2 lightgrey framerate 10


                                                            # dump hdf5 files to /hdf5 folder
#shell mkdir hdf5                                           # require build NUFEB with hdf5 option
#dump du3 all nufeb/hdf5 10 dump.h5 id type x y z vx vy vz fx fy fz radius conc reac

thermo_style custom step cpu atoms v_ncross1 v_ncross2 v_ncheater v_ndead v_mass     # screen and log outputs
thermo 1
thermo_modify   lost ignore

#-----------------------------------Run----------------------------------------#

# issue run command, define timesteps for physical (pairdt) and chemical (diffdt) processes
run_style nufeb diffdt 1e-4 difftol 1e-6 pairdt 1e-2 pairtol 1 pairmax 1000 diffmax 5000

timestep 12000                                               # define biological timesteps (1000s)

run 320                                                    # growing biofilm for 900x1000s
Generated 0 of 6 mixed pair_coeff terms from geometric mixing rule
Last active /omp style is pair_style gran/hooke/history/omp
Neighbor list info ...
  update every 1 steps, delay 10 steps, check yes
  max neighbors/atom: 2000, page size: 100000
  master list distance cutoff = 2.49e-06
  ghost atom cutoff = 2.49e-06
  binsize = 1.245e-06, bins = 49 49 49
  1 neighbor lists, perpetual/occasional/extra = 1 0 0
  (1) pair gran/hooke/history/omp, perpetual
      attributes: half, newton off, size, history, omp
      pair build: half/size/bin/newtoff/omp
      stencil: full/bin/3d
      bin: standard
Per MPI rank memory allocation (min/avg/max) = 11.02 | 11.02 | 11.02 Mbytes
   Step          CPU          Atoms      v_ncross1      v_ncross2      v_ncheater      v_ndead         v_mass    
         0   0                    150   50             50             50             0              1.3295396e-13
         1   0.3857953            273   96             91             86             0              1.9616795e-13
         2   0.75816986           436   149            149            138            0              2.2390855e-13
         3   1.0858513            549   177            195            177            0              2.4569161e-13
         4   1.3731958            600   191            215            194            0              2.6491165e-13
         5   1.5704076            631   199            225            207            0              2.8276512e-13
         6   1.7215912            662   209            234            219            0              2.9979529e-13
         7   1.8702041            699   221            246            232            0              3.1614346e-13
         8   2.0031895            739   233            255            251            0              3.3184231e-13
         9   2.1544054            782   247            266            269            0              3.4682522e-13
        10   2.3069235            819   254            279            286            0              3.6128598e-13
        11   2.4334331            847   261            283            303            0              3.7511274e-13
        12   2.5649657            877   273            287            317            0              3.8834391e-13
        13   2.6817332            909   279            297            333            0              4.0098623e-13
        14   2.7579223            942   287            307            348            0              4.1249633e-13
        15   2.8464473            976   295            310            371            0              4.2336941e-13
        16   2.9292549           1004   302            318            384            0              4.3365895e-13
        17   3.0092226           1036   311            328            397            0              4.434863e-13 
        18   3.0970222           1064   317            335            412            0              4.5292359e-13
        19   3.2045377           1085   321            338            426            0              4.6198724e-13
        20   3.3147192           1111   329            342            440            0              4.7090253e-13
        21   3.4188868           1129   332            345            452            0              4.7941248e-13
        22   3.5117847           1151   335            351            465            0              4.8744674e-13
        23   3.5777121           1175   338            355            482            0              4.9511755e-13
        24   3.6783128           1191   343            357            491            0              5.02402e-13  
        25   3.7774782           1216   347            359            510            0              5.0954025e-13
        26   3.8742308           1240   351            361            528            0              5.1648174e-13
        27   3.9755346           1254   355            361            538            0              5.2323493e-13
        28   4.0689426           1270   356            363            551            0              5.2980863e-13
        29   4.1745053           1291   357            366            568            0              5.3618903e-13
        30   12.906053           1307   358            369            580            0              5.4260989e-13
        31   12.984105           1327   360            372            595            0              5.4882496e-13
        32   13.082633           1347   365            373            609            0              5.5476619e-13
        33   13.177085           1368   367            376            625            0              5.6064055e-13
        34   13.296821           1384   367            380            637            0              5.6646508e-13
        35   13.394967           1410   373            381            656            0              5.7231673e-13
        36   13.478607           1428   374            382            672            0              5.7812896e-13
        37   13.574377           1450   377            383            690            0              5.8379059e-13
        38   13.705777           1476   382            385            709            0              5.8940472e-13
        39   13.789483           1499   387            385            727            0              5.9516315e-13
        40   13.912374           1521   390            385            746            0              6.008188e-13 
        41   14.00551            1541   391            387            763            0              6.0636793e-13
        42   14.106295           1562   395            388            779            0              6.1176538e-13
        43   14.195472           1584   396            388            800            0              6.1721169e-13
        44   14.286225           1605   398            388            819            0              6.2256611e-13
        45   14.369559           1621   398            388            835            0              6.2788371e-13
        46   14.453434           1641   399            388            854            0              6.3310136e-13
        47   14.532828           1658   400            390            868            0              6.3819649e-13
        48   14.60958            1674   402            391            881            0              6.4313744e-13
        49   14.69637            1687   402            391            894            0              6.4802027e-13
        50   26.256041           1703   403            391            909            0              6.5288972e-13
        51   26.355759           1717   403            392            921            1              6.5779147e-13
        52   26.450033           1744   404            392            947            1              6.627037e-13 
        53   26.536568           1763   404            392            965            2              6.6767512e-13
        54   26.662049           1783   405            394            981            3              6.7246376e-13
        55   26.826189           1803   406            394            998            5              6.7752199e-13
        56   26.998316           1830   408            395            1022           5              6.8315927e-13
        57   27.182122           1846   408            398            1033           7              6.8913159e-13
        58   27.361928           1869   408            398            1052           11             6.9547392e-13
        59   27.585555           1897   409            399            1075           14             7.0228005e-13
        60   27.797883           1920   409            399            1090           22             7.0980555e-13
        61   28.008833           1950   409            399            1115           27             7.1747528e-13
        62   28.216775           1981   409            400            1139           33             7.2558047e-13
        63   28.373428           2014   410            400            1167           37             7.3394651e-13
        64   28.532727           2049   410            400            1196           43             7.4220845e-13
        65   28.713257           2081   410            400            1218           53             7.5043161e-13
        66   28.867057           2108   410            400            1235           63             7.5883017e-13
        67   29.030914           2140   411            400            1259           70             7.6716336e-13
        68   29.191507           2183   411            400            1295           77             7.7548973e-13
        69   29.340756           2214   412            400            1316           86             7.8378775e-13
        70   29.523156           2259   414            401            1352           92             7.920577e-13 
        71   29.663355           2290   414            401            1369           106            8.0025308e-13
        72   29.820422           2318   414            401            1392           111            8.083523e-13 
        73   29.984005           2345   414            401            1412           118            8.1643541e-13
        74   30.14538            2370   414            401            1425           130            8.2462603e-13
        75   30.365741           2403   414            401            1451           137            8.3281966e-13
        76   30.536644           2444   414            401            1487           142            8.414125e-13 
        77   30.786099           2488   414            401            1524           149            8.4995516e-13
        78   31.034985           2520   414            401            1552           153            8.5910135e-13
        79   31.297262           2555   414            401            1577           163            8.686087e-13 
        80   31.570924           2597   415            401            1612           169            8.7859535e-13
        81   31.816062           2640   416            401            1648           175            8.8885211e-13
        82   32.057968           2678   416            401            1680           181            8.9933256e-13
        83   32.27286            2724   416            401            1718           189            9.0995102e-13
        84   32.44787            2765   416            401            1753           195            9.2044178e-13
        85   32.641006           2806   416            401            1782           207            9.3063218e-13
        86   32.837776           2851   416            401            1813           221            9.4070718e-13
        87   32.98321            2885   416            401            1841           227            9.5063457e-13
        88   33.145318           2926   417            401            1870           238            9.6021156e-13
        89   33.338787           2979   417            401            1914           247            9.6952339e-13
        90   33.6024             3014   417            401            1935           261            9.7898909e-13
        91   33.815545           3061   417            401            1976           267            9.887204e-13 
        92   34.094924           3099   417            401            2001           280            9.9833131e-13
        93   34.407432           3141   416            400            2035           290            1.0086615e-12
        94   34.751103           3186   416            400            2072           298            1.019589e-12 
        95   35.08024            3235   416            400            2113           306            1.0315125e-12
        96   35.426851           3290   416            399            2164           311            1.0440295e-12
        97   35.761305           3340   416            396            2212           316            1.0572284e-12
        98   36.057336           3390   416            396            2259           319            1.0709994e-12
        99   36.326908           3449   416            396            2311           326            1.084841e-12 
       100   36.633136           3503   415            396            2360           332            1.0985274e-12
       101   36.886512           3565   414            396            2417           338            1.1122063e-12
       102   37.19473            3631   414            396            2480           341            1.1257403e-12
       103   37.45175            3696   414            396            2541           345            1.1394092e-12
       104   37.750529           3763   414            396            2602           351            1.1529006e-12
       105   38.042289           3821   414            396            2656           355            1.1666588e-12
       106   38.394703           3876   414            396            2709           357            1.180577e-12 
       107   38.768404           3931   413            396            2758           364            1.1951673e-12
       108   39.147782           4010   412            396            2831           371            1.2106361e-12
       109   39.523341           4084   411            396            2892           385            1.2270119e-12
       110   39.926221           4159   410            396            2957           396            1.2441032e-12
       111   40.300919           4232   410            396            3020           406            1.2619645e-12
       112   40.672835           4318   410            395            3087           426            1.2804783e-12
       113   41.042042           4399   409            395            3153           442            1.2993193e-12
       114   41.388871           4476   409            395            3215           457            1.3184445e-12
       115   41.694867           4585   408            395            3317           465            1.3373744e-12
       116   42.006702           4658   408            395            3385           470            1.3560247e-12
       117   42.321239           4748   408            394            3462           484            1.3743048e-12
       118   42.657454           4840   408            394            3545           493            1.3923861e-12
       119   42.982271           4927   408            394            3622           503            1.4106334e-12
       120   43.382148           5017   408            394            3694           521            1.4286284e-12
       121   43.764539           5100   408            394            3759           539            1.4471436e-12
       122   44.150577           5202   408            394            3850           550            1.4660074e-12
       123   44.553147           5291   408            393            3926           564            1.4858139e-12
       124   44.939055           5385   407            393            4009           576            1.5064438e-12
       125   45.3344             5487   407            393            4097           590            1.5275769e-12
       126   45.72595            5591   407            392            4187           605            1.5493012e-12
       127   46.112395           5680   407            392            4268           613            1.5713274e-12
       128   46.483263           5779   407            391            4353           628            1.5934415e-12
       129   46.840264           5903   407            391            4464           641            1.6153875e-12
       130   47.255789           6001   407            390            4546           658            1.6368789e-12
       131   47.6035             6113   407            390            4642           674            1.6582596e-12
       132   47.983228           6230   407            390            4741           692            1.6793467e-12
       133   48.380413           6321   407            390            4811           713            1.7008703e-12
       134   48.784647           6414   407            389            4889           729            1.722552e-12 
       135   49.193877           6522   407            388            4985           742            1.7445553e-12
       136   49.619926           6624   407            388            5069           760            1.767426e-12 
       137   50.030124           6745   407            388            5176           774            1.791497e-12 
       138   50.441985           6867   407            388            5280           792            1.81677e-12  
       139   50.873408           6981   407            388            5381           805            1.8429729e-12
       140   51.340686           7115   407            388            5487           833            1.8695779e-12
       141   51.763072           7234   407            388            5583           856            1.8965226e-12
       142   52.22936            7354   407            387            5681           879            1.923538e-12 
       143   52.663499           7485   407            387            5782           909            1.9508687e-12
       144   53.112923           7625   407            387            5890           941            1.9779836e-12
       145   53.552166           7748   407            387            5987           967            2.0058761e-12
       146   54.01585            7890   407            387            6094           1002           2.0351665e-12
       147   54.479415           8026   407            387            6202           1030           2.065099e-12 
       148   54.926012           8174   407            387            6313           1067           2.0961343e-12
       149   55.393448           8339   407            387            6447           1098           2.1286893e-12
       150   55.876664           8477   407            386            6534           1150           2.1619145e-12
       151   56.327742           8626   404            386            6643           1193           2.1961099e-12
       152   56.785981           8790   404            386            6768           1232           2.2308582e-12
       153   57.263002           8957   404            386            6904           1263           2.2658126e-12
       154   57.737503           9124   404            386            7040           1294           2.3007001e-12
       155   58.201752           9295   404            386            7162           1343           2.3353845e-12
       156   58.676471           9467   404            386            7284           1393           2.3703739e-12
       157   59.161339           9630   404            386            7395           1445           2.4059819e-12
       158   59.638673           9813   404            386            7522           1501           2.4438347e-12
       159   60.141544           9998   404            386            7652           1556           2.4826041e-12
       160   60.673316          10158   404            386            7756           1612           2.5231331e-12
       161   61.188773          10335   404            386            7867           1678           2.5652799e-12
       162   61.718427          10531   404            386            8007           1734           2.6091002e-12
       163   62.283659          10732   403            385            8146           1798           2.654165e-12 
       164   62.81623           10942   403            384            8299           1856           2.7001936e-12
       165   63.37383           11154   403            384            8454           1913           2.7469438e-12
       166   63.98535           11357   403            384            8613           1957           2.7948651e-12
       167   64.595035          11566   403            384            8777           2002           2.8437452e-12
       168   65.219064          11773   403            384            8930           2056           2.8948271e-12
       169   65.823615          11996   403            384            9092           2117           2.9480043e-12
       170   66.5221            12232   403            384            9273           2172           3.0036913e-12
       171   67.209135          12474   403            384            9444           2243           3.0626769e-12
       172   67.879525          12734   401            384            9648           2301           3.1259578e-12
       173   68.529289          12990   401            384            9830           2375           3.1933808e-12
       174   69.228814          13263   401            384            10031          2447           3.2642205e-12
       175   69.965898          13559   401            384            10271          2503           3.3379433e-12
       176   70.731607          13876   400            384            10526          2566           3.4147533e-12
       177   71.51945           14178   399            384            10760          2635           3.4947437e-12
       178   72.356162          14512   399            384            11030          2699           3.5795548e-12
       179   73.194089          14857   399            382            11314          2762           3.6719109e-12
       180   74.171166          15218   398            381            11627          2812           3.7709192e-12
       181   75.112503          15598   398            381            11943          2876           3.8782942e-12
       182   76.241949          16029   398            379            12320          2932           3.9947622e-12
       183   77.513859          16454   396            378            12682          2998           4.1192012e-12
       184   78.885309          16908   395            377            13051          3085           4.2473796e-12
       185   80.487629          17369   395            377            13448          3149           4.3824434e-12
       186   82.28624           17864   395            377            13886          3206           4.5201871e-12
       187   84.140765          18332   394            377            14292          3269           4.657196e-12 
       188   86.046109          18822   394            377            14715          3336           4.7940665e-12
       189   87.983893          19316   394            376            15134          3412           4.9376806e-12
       190   90.032293          19841   394            374            15588          3485           5.0795569e-12
       191   92.095104          20400   394            373            16072          3561           5.2441364e-12
       192   94.190962          20938   394            373            16544          3627           5.3878715e-12
       193   96.331514          21476   394            373            17006          3703           5.5267923e-12
       194   98.506613          22031   394            370            17472          3795           5.6849278e-12
       195   100.74014          22616   392            369            17979          3876           5.8410374e-12
       196   103.02577          23210   392            369            18467          3982           5.9999954e-12
       197   105.38119          23806   392            369            18945          4100           6.1553265e-12
       198   107.76761          24441   392            369            19462          4218           6.3137518e-12
       199   110.18731          25066   392            369            19998          4307           6.4827429e-12
       200   112.70868          25708   391            369            20519          4429           6.6638936e-12
       201   115.22325          26367   390            369            21064          4544           6.825192e-12 
       202   117.73401          27033   390            367            21603          4673           7.0127755e-12
       203   120.23394          27653   389            365            22102          4797           7.1807988e-12
       204   122.75869          28390   389            361            22707          4933           7.3683746e-12
       205   125.30334          29092   385            360            23277          5070           7.5577889e-12
       206   127.85264          29855   382            354            23894          5225           7.7572271e-12
       207   130.4075           30587   376            352            24472          5387           7.9496028e-12
       208   132.94855          31343   372            349            25081          5541           8.1545962e-12
       209   135.52899          32148   371            347            25734          5696           8.3555652e-12
       210   138.20019          32913   367            340            26350          5856           8.5532145e-12
       211   140.78736          33637   364            332            26915          6026           8.7429161e-12
       212   143.37296          34389   359            329            27497          6204           8.938482e-12 
       213   145.95538          35265   355            321            28207          6382           9.1443471e-12
       214   148.57062          36153   347            317            28912          6577           9.3576551e-12
       215   151.16405          36845   343            302            29408          6792           9.5459189e-12
       216   153.77382          37683   338            292            30052          7001           9.7383048e-12
       217   156.37204          38525   330            284            30694          7217           9.9273324e-12
       218   158.99277          39334   313            267            31282          7472           1.0118243e-11
       219   161.62673          40061   298            262            31767          7734           1.0274046e-11
       220   164.39918          40808   289            252            32223          8044           1.0424853e-11
       221   167.08474          41551   272            239            32682          8358           1.0573588e-11
       222   169.76889          42309   257            227            33145          8680           1.0724554e-11
       223   172.47769          43021   245            210            33623          8943           1.0861708e-11
       224   175.20321          43687   234            194            34017          9242           1.0967599e-11
       225   177.92953          44374   210            177            34421          9566           1.1107144e-11
       226   180.69049          45085   190            162            34870          9863           1.1202699e-11
       227   183.48069          45737   168            148            35266          10155          1.1299596e-11
       228   186.31             46281   142            128            35595          10416          1.1366527e-11
       229   189.10504          46874   127            111            35950          10686          1.1437808e-11
       230   192.07698          47462   112            96             36331          10923          1.1509299e-11
       231   194.9612           47985   94             77             36626          11188          1.1531332e-11
       232   197.82267          48550   80             63             36973          11434          1.1617705e-11
       233   200.72165          49082   68             56             37289          11669          1.164729e-11 
       234   203.62912          49600   56             45             37582          11917          1.1679282e-11
       235   206.58803          50061   39             30             37765          12227          1.1714427e-11
       236   209.56538          50571   32             23             38023          12493          1.1727877e-11
       237   212.53861          51039   21             16             38194          12808          1.1763563e-11
       238   215.53217          51519   17             12             38395          13095          1.1772366e-11
       239   218.57175          52058   14             11             38631          13402          1.1803846e-11
       240   221.79111          52441   13             7              38717          13704          1.1803415e-11
       241   224.89935          52937   11             4              38894          14028          1.1834632e-11
       242   228.01751          53356   10             4              39012          14330          1.183109e-11 
       243   231.14358          53741   7              4              39058          14672          1.1823178e-11
       244   234.27556          54175   4              4              39158          15009          1.1836754e-11
       245   237.47635          54623   3              4              39286          15330          1.1836701e-11
       246   240.6752           55051   3              4              39440          15604          1.1830036e-11
       247   243.8856           55425   2              4              39501          15918          1.1835054e-11
       248   247.11195          55845   2              4              39605          16234          1.184668e-11 
       249   250.38881          56251   2              4              39668          16577          1.1848184e-11
       250   253.85741          56666   2              4              39774          16886          1.1840234e-11
       251   257.20929          57051   2              4              39863          17182          1.1825243e-11
       252   260.59972          57456   2              4              39954          17496          1.181623e-11 
       253   264.01788          57799   2              4              39951          17842          1.1804057e-11
       254   267.43328          58070   2              4              39911          18153          1.1785432e-11
       255   270.87482          58497   2              4              40020          18471          1.1785869e-11
       256   274.36967          58895   2              4              40093          18796          1.1777893e-11
       257   277.91109          59305   2              4              40185          19114          1.1780176e-11
       258   281.45905          59590   2              4              40189          19395          1.1762104e-11
       259   285.06066          59976   2              4              40259          19711          1.1763172e-11
       260   288.8367           60280   2              4              40242          20032          1.1725731e-11
       261   292.45961          60670   2              4              40313          20351          1.1730902e-11
       262   296.1446           61142   2              4              40482          20654          1.1765309e-11
       263   299.86966          61408   2              4              40439          20963          1.1740398e-11
       264   303.61032          61800   2              4              40500          21294          1.1753256e-11
       265   307.4502           62082   2              4              40454          21622          1.1723291e-11
       266   311.28059          62498   2              4              40524          21968          1.1732235e-11
       267   315.15135          62872   2              4              40570          22296          1.1731294e-11
       268   319.0458           63145   2              4              40506          22633          1.1697525e-11
       269   322.95303          63496   2              4              40515          22975          1.1710363e-11
       270   327.088            63807   2              4              40422          23379          1.1696991e-11
       271   331.09534          64092   2              4              40346          23740          1.1671923e-11
       272   335.11869          64443   2              4              40323          24114          1.1676304e-11
       273   339.1841           64814   2              4              40289          24519          1.1686693e-11
       274   343.14427          65114   2              4              40210          24898          1.1684844e-11
       275   347.15998          65500   2              4              40163          25331          1.1696377e-11
       276   351.1861           65878   2              4              40136          25736          1.1718137e-11
       277   355.31167          66156   2              4              39994          26156          1.1700472e-11
       278   359.44442          66508   2              4              39923          26579          1.169782e-11 
       279   363.61486          66863   2              4              39836          27021          1.1708996e-11
       280   367.97978          67149   2              4              39640          27503          1.1703655e-11
       281   372.23781          67449   2              4              39504          27939          1.1699308e-11
       282   376.55457          67812   2              4              39400          28406          1.1707426e-11
       283   380.83785          68141   2              4              39274          28861          1.171595e-11 
       284   385.27737          68432   2              4              39056          29370          1.1691706e-11
       285   389.64043          68733   2              4              38897          29830          1.1708854e-11
       286   394.00289          69116   2              4              38811          30299          1.1731007e-11
       287   398.44893          69454   2              4              38645          30803          1.1726019e-11
       288   402.92517          69802   2              4              38506          31290          1.1757394e-11
       289   407.46908          70088   2              4              38335          31747          1.1754738e-11
       290   412.18105          70441   2              4              38235          32200          1.1783415e-11
       291   416.87122          70693   2              4              38037          32650          1.1758239e-11
       292   421.54151          71022   2              4              37876          33140          1.1770124e-11
       293   426.23631          71382   2              4              37782          33594          1.1780097e-11
       294   431.02661          71704   2              4              37646          34052          1.1794462e-11
       295   435.84243          71973   2              4              37468          34499          1.1798306e-11
       296   440.64961          72252   2              4              37325          34921          1.1800358e-11
       297   445.49724          72667   2              4              37314          35347          1.1840897e-11
       298   450.4431           72908   2              4              37147          35755          1.1827444e-11
       299   455.41246          73222   2              4              37031          36185          1.1831394e-11
       300   460.57971          73556   2              4              36965          36585          1.1845424e-11
       301   465.65893          73812   2              4              36826          36980          1.1837235e-11
       302   470.71513          74166   2              4              36784          37376          1.1874785e-11
       303   475.79577          74445   2              4              36655          37784          1.1873002e-11
       304   480.9494           74744   2              4              36578          38160          1.1882729e-11
       305   486.15059          75089   2              4              36532          38551          1.1901555e-11
       306   491.33678          75433   2              4              36506          38921          1.1921594e-11
       307   496.62343          75671   2              4              36359          39306          1.1911237e-11
       308   501.97862          75871   2              4              36215          39650          1.1902746e-11
       309   507.32893          76199   2              4              36205          39988          1.1897461e-11
       310   512.88381          76556   2              4              36182          40368          1.1925831e-11
       311   518.33343          76764   2              4              36033          40725          1.1911098e-11
       312   523.76007          77096   2              4              36007          41083          1.1936361e-11
       313   529.2682           77311   2              4              35859          41446          1.1935294e-11
       314   534.82062          77685   2              4              35908          41771          1.1963993e-11
       315   540.39669          78013   2              4              35909          42098          1.1967678e-11
       316   546.02149          78392   2              4              35958          42428          1.1992854e-11
       317   551.71064          78636   2              4              35890          42740          1.2002534e-11
       318   557.40854          78914   2              4              35856          43052          1.2019323e-11
       319   563.23002          79148   2              4              35777          43365          1.2005073e-11
       320   569.33414          79526   2              4              35838          43682          1.2037558e-11
Loop time of 569.334 on 16 procs for 320 steps with 79526 atoms

96.4% CPU use with 16 MPI tasks x 1 OpenMP threads

MPI task timing breakdown:
Section |  min time  |  avg time  |  max time  |%varavg| %total
---------------------------------------------------------------
Pair    | 113.51     | 150.38     | 207.47     | 269.3 | 26.41
Neigh   | 17.472     | 33.974     | 69.021     | 325.1 |  5.97
Comm    | 78.019     | 102.02     | 134.98     | 210.3 | 17.92
Output  | 22.621     | 22.621     | 22.621     |   0.0 |  3.97
Modify  | 126.67     | 240.23     | 312.34     | 421.1 | 42.20
Other   |            | 20.12      |            |       |  3.53

Nlocal:        4970.38 ave        8165 max        3541 min
Histogram: 7 4 1 0 0 0 0 0 0 4
Nghost:        3950.12 ave        6509 max        2778 min
Histogram: 4 6 2 0 0 0 0 0 2 2
Neighs:        38552.1 ave       47881 max       31943 min
Histogram: 3 1 4 4 0 0 0 0 0 4

Total # of neighbors = 616834
Ave neighs/atom = 7.7563816
Neighbor list builds = 4538
Dangerous builds = 382

Total wall time: 0:09:30
