LAMMPS (23 Jun 2022 - Update 4)
  using 1 OpenMP thread(s) per MPI task
package omp 0
using multi-threaded neighbor list subroutines
#-----------------------------------------------------------------------------#
#                NUFEB Simulation: Heterotrophic Biofilm Growth               #
#-----------------------------------------------------------------------------#


#-----------------------------System Settings---------------------------------#

units si                                    # using si units (m, s, kg)
atom_style      coccus                      # using nufeb coccus atom style
atom_modify     map array sort 10 0         # map array - find atoms using indices
		                            # sort every 10

boundary        pp pp ff                    # periodic boundaries in x and y
                                            # fixed boundary in z

newton          off                         # forces between local and ghost
                                            # atoms are computed in each
					     # processor without communication

processors      * * 1                       # processor grid

comm_modify     vel yes                     # communicate velocities for ghost atoms

read_data       atom_ch.in	             # read atom.in file which defines domain size
Reading data file ...
  orthogonal box = (0 0 0) to (6e-05 6e-05 6e-05)
  4 by 4 by 1 MPI processor grid
  reading atoms ...
  150 atoms
  read_data CPU = 0.023 seconds
                                            # and initial atoms


#--------------------Microbes and Functional Groups-------------------------#

group           CROSS1   type 1               # assign type 1,2 atoms to CROSS group
50 atoms in group CROSS1
group           CROSS2   type 2
50 atoms in group CROSS2
group		CHEATER  type 3
50 atoms in group CHEATER
group           dead     type 4
0 atoms in group dead

neighbor        5e-7 bin                   # setting neighbour skin distance and style

neigh_modify    check yes                  # rebuild neighbour list if any atom
                                           # had moved more than half the skin distance


#--------------------------Mesh Grid and Substrates--------------------------#

# defining grid sytle, substrate names, and grid size
grid_style      nufeb/chemostat 3 sub metab1 metab2 5e-6

# set diffusion boundary conditions and initial concentrations (liquid:kg/m3)
grid_modify     set sub      pp pp nd  1.8e-4
No /omp style for force computation currently active
grid_modify     set metab1   pp pp nd  1e-4
No /omp style for force computation currently active
grid_modify     set metab2   pp pp nd  1e-4
No /omp style for force computation currently active


#--------------------------Biological Processes-------------------------------#

# heterotrophs growth
fix growth_cross1 CROSS1 nufeb/growth/cross1 sub 3.5e-5 metab2 4e-3 metab1 growth 0.009 yield 0.6 decay 2.6e-6 metab1_exp 20

fix growth_cross2 CROSS2 nufeb/growth/cross2 sub 3.5e-5 metab1 4e-3 metab2 growth 0.009 yield 0.6 decay 2.6e-6 metab2_exp 20

fix growth_cheater CHEATER nufeb/growth/cheater sub 3.5e-5 metab1 1e-3 metab2 1e-3 growth 0.009 yield 0.6 decay 2.6e-6
# heterotrophs division, division diameter: 1.36e-6
fix div1 CROSS1 nufeb/division/coccus 1.36e-6 1259
fix div2 CROSS2 nufeb/division/coccus 1.36e-6 4730
fix div3 CHEATER nufeb/division/coccus 1.36e-6 10513

fix death1 CROSS1 nufeb/death/diameter dead 5.43e-7
fix death2 CROSS2 nufeb/death/diameter dead 5.43e-7
fix death3 CHEATER nufeb/death/diameter dead 5.43e-7

#---------------------------Physical Processes--------------------------------#

pair_style  gran/hooke/history 1e-4 NULL 1e-5 NULL 0.0 0    # pairwise interaction
pair_coeff  * *                                             # between atoms

# pairwise interaction between z-wall and atoms
fix wall all wall/gran hooke/history 1e-3 NULL 1e-4 NULL 0 0 zplane 0.0 1e-04

fix vis all viscous 1e-5                                    # viscous damping force

fix grav all gravity 9.81 vector 0.0 0.0 -1.0

fix nve all nve/limit 1e-7                                  # NVE integration with
                                                            # maximum distance limit


#---------------------------Post-Physical Processes---------------------------#

fix coeff_sub all nufeb/diffusion_coeff sub ratio 0.8       # defining diffusion coeff in the biofilm
fix coeff_metab1 all nufeb/diffusion_coeff metab1 ratio 0.8    # region is 80% of the value in liquid
fix coeff_metab2 all nufeb/diffusion_coeff metab2 ratio 0.8

#---------------------------Chemical Processes---------------------------------#

fix diff_sub all nufeb/diffusion_reaction sub 1e-9        # diffusion reaction for updating
fix diff_metab1 all nufeb/diffusion_reaction metab1 4e-9     # distribusion of substrate concentration
fix diff_metab2 all nufeb/diffusion_reaction metab2 4e-9

#--------------------------Computations and Outputs----------------------------#

variable mass equal "mass(all)"                             # total mass
variable ncross1 equal "count(CROSS1)"                      # total # of CROSS1
variable ncross2 equal "count(CROSS2)"                      # total # of CROSS2
variable ncheater equal "count(CHEATER)"
variable ndead equal "count(dead)"

shell mkdir vtk_NEPS_ch                                            # dump vtk files to /vtk folder
dump du1 all vtk 10 vtk_NEPS_ch/dump*.vtu id type diameter         # require build NUFEB with vtk option
dump du2 all grid/vtk 10 vtk_NEPS_ch/dump_%_*.vti con rea den gro

#dump du3 all movie 10 movie.avi type diameter view 80 60    # dump video
#dump_modify du3 acolor 1 blue acolor 2 lightgrey framerate 10


                                                            # dump hdf5 files to /hdf5 folder
#shell mkdir hdf5                                           # require build NUFEB with hdf5 option
#dump du3 all nufeb/hdf5 10 dump.h5 id type x y z vx vy vz fx fy fz radius conc reac

thermo_style custom step cpu atoms v_ncross1 v_ncross2 v_ncheater v_ndead v_mass     # screen and log outputs
thermo 1
thermo_modify   lost ignore

#-----------------------------------Run----------------------------------------#

# issue run command, define timesteps for physical (pairdt) and chemical (diffdt) processes
run_style nufeb diffdt 1e-4 difftol 1e-6 pairdt 1e-2 pairtol 1 pairmax 1000 diffmax 5000

timestep 12000                                               # define biological timesteps (1000s)

run 320                                                    # growing biofilm for 900x1000s
Generated 0 of 6 mixed pair_coeff terms from geometric mixing rule
Last active /omp style is pair_style gran/hooke/history/omp
Neighbor list info ...
  update every 1 steps, delay 10 steps, check yes
  max neighbors/atom: 2000, page size: 100000
  master list distance cutoff = 2.49e-06
  ghost atom cutoff = 2.49e-06
  binsize = 1.245e-06, bins = 49 49 49
  1 neighbor lists, perpetual/occasional/extra = 1 0 0
  (1) pair gran/hooke/history/omp, perpetual
      attributes: half, newton off, size, history, omp
      pair build: half/size/bin/newtoff/omp
      stencil: full/bin/3d
      bin: standard
Per MPI rank memory allocation (min/avg/max) = 11.02 | 11.02 | 11.02 Mbytes
   Step          CPU          Atoms      v_ncross1      v_ncross2      v_ncheater      v_ndead         v_mass    
         0   0                    150   50             50             50             0              1.3295396e-13
         1   0.38235663           273   96             91             86             0              1.9616795e-13
         2   0.75125352           434   149            151            134            0              2.2394164e-13
         3   1.0704003            537   174            195            168            0              2.4551908e-13
         4   1.3591821            589   189            214            186            0              2.6470365e-13
         5   1.5476896            628   197            226            205            0              2.8231487e-13
         6   1.6744178            662   210            234            218            0              2.9879526e-13
         7   1.797285             702   224            248            230            0              3.1436826e-13
         8   1.9268726            744   238            261            245            0              3.2904523e-13
         9   2.0436698            773   245            271            257            0              3.4295062e-13
        10   2.1748868            804   259            274            271            0              3.5617474e-13
        11   2.2886774            828   262            281            285            0              3.6867616e-13
        12   2.3614114            862   270            294            298            0              3.8038443e-13
        13   2.4492036            886   278            302            306            0              3.9144447e-13
        14   2.5494183            917   285            310            322            0              4.0210365e-13
        15   2.6488325            945   293            316            336            0              4.1240895e-13
        16   2.7254039            971   301            323            347            0              4.2197707e-13
        17   2.7935651            992   308            329            355            0              4.3103012e-13
        18   2.8633117           1017   314            333            370            0              4.3967426e-13
        19   2.9483737           1036   318            337            381            0              4.4793524e-13
        20   3.0303399           1062   326            344            392            0              4.5569865e-13
        21   3.0915033           1083   330            349            404            0              4.6300378e-13
        22   3.1485715           1101   335            349            417            0              4.7007025e-13
        23   3.204607            1124   343            356            425            0              4.7678914e-13
        24   3.2803039           1143   345            357            441            0              4.8320864e-13
        25   3.3596998           1160   346            363            451            0              4.8945538e-13
        26   3.4323009           1182   349            365            468            0              4.9551625e-13
        27   3.5170387           1192   352            366            474            0              5.0137107e-13
        28   3.5708471           1210   356            368            486            0              5.0709958e-13
        29   3.6711968           1228   360            371            497            0              5.1253896e-13
        30   3.7797215           1243   364            372            507            0              5.1803464e-13
        31   3.8662786           1261   369            374            518            0              5.2348682e-13
        32   3.9741383           1278   371            377            530            0              5.2876702e-13
        33   4.0831511           1295   373            380            542            0              5.3402324e-13
        34   4.183561            1312   377            381            554            0              5.3928536e-13
        35   4.2928279           1327   380            383            564            0              5.4450729e-13
        36   4.4171435           1341   381            384            576            0              5.498194e-13 
        37   4.5137615           1362   381            386            595            0              5.5527348e-13
        38   4.6190745           1380   385            389            606            0              5.6066161e-13
        39   4.7371026           1403   386            390            627            0              5.65961e-13  
        40   4.8621134           1420   387            391            642            0              5.7137372e-13
        41   5.0045864           1437   388            392            657            0              5.7662194e-13
        42   5.1059763           1457   389            392            676            0              5.8211034e-13
        43   5.202138            1481   391            394            696            0              5.875842e-13 
        44   5.2914156           1503   394            395            714            0              5.9303203e-13
        45   5.3871635           1519   396            395            728            0              5.9840285e-13
        46   5.4586014           1543   398            396            749            0              6.0373916e-13
        47   5.5500111           1560   400            397            763            0              6.0885491e-13
        48   5.6373113           1578   401            398            779            0              6.139568e-13 
        49   5.7389802           1601   403            400            798            0              6.1909877e-13
        50   5.8537951           1615   406            401            808            0              6.2416477e-13
        51   5.9320967           1637   407            401            829            0              6.2925011e-13
        52   6.0398397           1664   408            402            854            0              6.3422084e-13
        53   6.1373041           1676   408            403            864            1              6.3923738e-13
        54   6.2633048           1691   411            403            876            1              6.4420539e-13
        55   6.4253842           1713   412            403            896            2              6.4943361e-13
        56   6.5707673           1733   412            405            913            3              6.5519649e-13
        57   6.740055            1756   413            405            933            5              6.6111136e-13
        58   6.9460688           1775   414            405            949            7              6.6771722e-13
        59   7.1441202           1802   417            406            969            10             6.7453331e-13
        60   7.3776323           1833   418            406            998            11             6.8179451e-13
        61   7.584191            1853   418            406            1012           17             6.8954249e-13
        62   7.7869917           1882   420            406            1032           24             6.9764437e-13
        63   7.9551376           1911   420            408            1055           28             7.0592475e-13
        64   8.1105088           1950   420            408            1090           32             7.142237e-13 
        65   8.2509748           1982   421            408            1114           39             7.2239108e-13
        66   8.384808            2014   422            408            1136           48             7.3039348e-13
        67   8.5076472           2043   423            408            1157           55             7.382301e-13 
        68   8.6137798           2066   423            408            1174           61             7.4583158e-13
        69   8.7363481           2088   423            408            1189           68             7.5316178e-13
        70   8.8672863           2122   423            408            1214           77             7.6041632e-13
        71   9.0032262           2154   423            408            1236           87             7.6750661e-13
        72   9.1529751           2184   424            408            1254           98             7.7445489e-13
        73   9.3533358           2206   424            408            1263           111            7.8142623e-13
        74   9.585264            2240   424            409            1290           117            7.8885718e-13
        75   9.8213457           2271   424            409            1318           120            7.9679793e-13
        76   10.095588           2303   424            409            1345           125            8.0507583e-13
        77   10.362678           2337   424            409            1372           132            8.1400131e-13
        78   10.613418           2374   425            409            1404           136            8.2341512e-13
        79   10.867037           2408   425            409            1432           142            8.3307205e-13
        80   11.0964             2448   426            409            1465           148            8.4298037e-13
        81   11.304342           2478   426            409            1489           154            8.5278557e-13
        82   11.508262           2515   426            409            1521           159            8.6263216e-13
        83   11.715617           2552   426            409            1552           165            8.7242724e-13
        84   11.974199           2589   426            409            1586           168            8.8228997e-13
        85   12.207335           2633   426            409            1615           183            8.9216478e-13
        86   12.457029           2679   426            409            1655           189            9.0233261e-13
        87   12.762627           2713   426            409            1685           193            9.1284994e-13
        88   13.086028           2764   426            409            1725           204            9.2416055e-13
        89   13.448709           2813   426            408            1764           215            9.3622872e-13
        90   13.813474           2860   425            408            1805           222            9.4942786e-13
        91   14.149938           2918   425            408            1855           230            9.6333472e-13
        92   14.504674           2975   424            407            1906           238            9.778262e-13 
        93   14.82056            3030   423            406            1954           247            9.9304926e-13
        94   15.1065             3089   422            405            2005           257            1.0082706e-12
        95   15.36392            3161   421            405            2070           265            1.0233801e-12
        96   15.600461           3214   421            405            2117           271            1.038197e-12 
        97   15.854672           3279   421            405            2173           280            1.0526657e-12
        98   16.102054           3337   421            405            2225           286            1.0670924e-12
        99   16.388979           3403   421            405            2289           288            1.0812217e-12
       100   16.773064           3466   420            405            2347           294            1.0956474e-12
       101   17.179163           3527   420            405            2400           302            1.1106168e-12
       102   17.564301           3606   418            405            2478           305            1.1269469e-12
       103   17.948433           3672   418            405            2543           306            1.1440696e-12
       104   18.333989           3743   418            404            2611           310            1.1620937e-12
       105   18.718807           3832   417            404            2692           319            1.1808009e-12
       106   19.105162           3907   417            404            2758           328            1.1997866e-12
       107   19.453575           3981   415            404            2830           332            1.2190225e-12
       108   19.791918           4071   415            404            2914           338            1.2381321e-12
       109   20.113381           4150   414            404            2988           344            1.2569232e-12
       110   20.472069           4225   414            404            3057           350            1.2753191e-12
       111   20.821904           4311   414            403            3129           365            1.2938067e-12
       112   21.219048           4388   413            402            3199           374            1.3120884e-12
       113   21.622035           4465   413            402            3269           381            1.331097e-12 
       114   22.024743           4542   413            401            3341           387            1.3502003e-12
       115   22.415041           4643   413            401            3430           399            1.3704678e-12
       116   22.824096           4742   412            401            3520           409            1.3913585e-12
       117   23.224315           4841   412            401            3615           413            1.4133546e-12
       118   23.619823           4924   411            400            3683           430            1.4356475e-12
       119   24.017462           5017   411            400            3774           432            1.4580777e-12
       120   24.424734           5100   411            400            3852           437            1.4801985e-12
       121   24.76846            5209   411            400            3958           440            1.5021906e-12
       122   25.112189           5306   411            400            4043           452            1.523479e-12 
       123   25.517092           5396   411            400            4115           470            1.5441438e-12
       124   25.929085           5486   411            400            4197           478            1.5651548e-12
       125   26.369465           5582   411            400            4288           483            1.586079e-12 
       126   26.796919           5664   411            400            4358           495            1.6070539e-12
       127   27.232365           5768   411            400            4458           499            1.6294916e-12
       128   27.68179            5866   411            400            4548           507            1.6528057e-12
       129   28.123156           5974   411            400            4643           520            1.6771569e-12
       130   28.579849           6092   411            399            4750           532            1.7025116e-12
       131   29.012606           6192   411            399            4843           539            1.7285529e-12
       132   29.479623           6293   411            399            4926           557            1.7546314e-12
       133   29.926064           6421   411            399            5040           571            1.7807411e-12
       134   30.381819           6530   411            399            5125           595            1.8064382e-12
       135   30.851399           6632   411            399            5209           613            1.8321153e-12
       136   31.334714           6751   411            398            5303           639            1.8575654e-12
       137   31.83327            6880   411            398            5416           655            1.8841053e-12
       138   32.316256           6998   411            398            5498           691            1.9118243e-12
       139   32.797591           7114   411            398            5574           731            1.9411733e-12
       140   33.308114           7260   411            398            5690           761            1.9720902e-12
       141   33.82438            7384   411            398            5783           792            2.0042546e-12
       142   34.325175           7527   411            398            5895           823            2.0381365e-12
       143   34.813005           7684   411            398            6012           863            2.0726262e-12
       144   35.293461           7816   411            398            6108           899            2.1078014e-12
       145   35.791458           7962   411            398            6218           935            2.1428225e-12
       146   36.308019           8153   411            398            6369           975            2.1782847e-12
       147   36.828751           8323   411            398            6504           1010           2.2136297e-12
       148   37.36942            8483   411            398            6632           1042           2.2497557e-12
       149   37.928424           8659   411            398            6772           1078           2.2882988e-12
       150   38.502227           8822   411            398            6896           1117           2.3288245e-12
       151   39.073928           9020   411            398            7046           1165           2.3712825e-12
       152   39.635849           9216   411            398            7190           1217           2.4158688e-12
       153   40.222796           9424   411            398            7335           1280           2.4623598e-12
       154   40.830427           9620   411            398            7475           1336           2.5098366e-12
       155   41.455517           9845   411            398            7648           1388           2.5580974e-12
       156   42.074132          10046   411            398            7791           1446           2.6068893e-12
       157   42.690608          10261   411            398            7953           1499           2.6563325e-12
       158   43.392294          10478   411            397            8131           1539           2.7078938e-12
       159   44.087102          10719   411            397            8326           1585           2.7619715e-12
       160   44.858472          10953   411            397            8505           1640           2.8196354e-12
       161   45.6131            11235   411            397            8737           1690           2.8817442e-12
       162   46.364243          11479   411            397            8922           1749           2.9462606e-12
       163   47.170633          11736   411            397            9123           1805           3.0142761e-12
       164   48.00813           12055   411            397            9369           1878           3.0847695e-12
       165   48.873792          12327   411            397            9587           1932           3.1581468e-12
       166   49.826989          12599   411            397            9803           1988           3.2359529e-12
       167   50.802581          12924   411            397            10072          2044           3.3210691e-12
       168   51.836019          13254   410            396            10345          2103           3.4129057e-12
       169   52.994834          13640   410            396            10679          2155           3.5134184e-12
       170   54.3892            14017   410            394            11018          2195           3.6226898e-12
       171   55.890008          14432   410            394            11377          2251           3.7414242e-12
       172   57.446934          14862   409            394            11753          2306           3.8669952e-12
       173   59.233794          15285   409            394            12122          2360           3.9986026e-12
       174   61.229722          15764   408            394            12539          2423           4.1308398e-12
       175   63.394025          16219   407            394            12924          2494           4.2623344e-12
       176   65.640672          16710   406            393            13347          2564           4.3992112e-12
       177   67.962088          17188   406            393            13770          2619           4.5318585e-12
       178   70.356625          17658   406            392            14190          2670           4.671544e-12 
       179   72.79854           18154   406            390            14634          2724           4.8127963e-12
       180   75.342592          18669   406            390            15082          2791           4.9558121e-12
       181   77.894196          19172   406            389            15549          2828           5.1021792e-12
       182   80.441465          19680   406            389            16005          2880           5.248034e-12 
       183   83.035512          20224   406            388            16499          2931           5.3982096e-12
       184   85.681265          20781   406            388            17002          2985           5.5552755e-12
       185   88.372545          21319   406            388            17472          3053           5.7093789e-12
       186   91.114567          21912   405            386            17981          3140           5.8747462e-12
       187   93.812409          22527   405            384            18525          3213           6.0438419e-12
       188   96.511819          23108   405            381            19023          3299           6.2130006e-12
       189   99.214283          23772   405            381            19616          3370           6.3983651e-12
       190   101.99376          24467   404            380            20242          3441           6.5805204e-12
       191   104.76429          25100   403            378            20797          3522           6.7537158e-12
       192   107.53301          25731   403            375            21327          3626           6.9259441e-12
       193   110.24403          26449   401            375            21955          3718           7.1239402e-12
       194   112.9526           27232   400            375            22619          3838           7.3432535e-12
       195   115.66357          27927   399            375            23189          3964           7.5302424e-12
       196   118.36654          28713   399            375            23839          4100           7.7484979e-12
       197   121.11185          29471   396            373            24466          4236           7.9375359e-12
       198   123.8468           30196   392            371            25056          4377           8.1340711e-12
       199   126.566            31012   391            366            25708          4547           8.3557111e-12
       200   129.35917          31764   389            362            26315          4698           8.5380215e-12
       201   132.09432          32567   388            359            26925          4895           8.7609798e-12
       202   134.83479          33446   388            353            27586          5119           8.9782103e-12
       203   137.58026          34173   386            348            28130          5309           9.1648232e-12
       204   140.28321          35019   380            342            28724          5573           9.3691578e-12
       205   143.01718          35835   378            338            29276          5843           9.5839916e-12
       206   145.76141          36611   373            334            29786          6118           9.7563761e-12
       207   148.52968          37357   368            322            30270          6397           9.9310457e-12
       208   151.27723          38199   359            316            30818          6706           1.0111901e-11
       209   154.04332          38960   351            304            31303          7002           1.0285879e-11
       210   156.88579          39755   338            293            31829          7295           1.0475093e-11
       211   159.72597          40445   326            282            32215          7622           1.0610579e-11
       212   162.5235           41115   311            269            32584          7951           1.0738579e-11
       213   165.31428          41852   289            251            33052          8260           1.0868187e-11
       214   168.14057          42520   273            239            33443          8565           1.0983794e-11
       215   170.98923          43152   250            215            33829          8858           1.1082785e-11
       216   173.82048          43742   223            194            34186          9139           1.1168742e-11
       217   176.66928          44428   197            176            34635          9420           1.1280389e-11
       218   179.53402          45049   171            160            35053          9665           1.1345486e-11
       219   182.42851          45600   146            143            35396          9915           1.1406337e-11
       220   185.46517          46205   127            121            35783          10174          1.1492811e-11
       221   188.41479          46704   100            100            36090          10414          1.1560111e-11
       222   191.36192          47290   81             87             36478          10644          1.1605288e-11
       223   194.37099          47814   61             69             36844          10840          1.1648777e-11
       224   197.42176          48326   51             51             37186          11038          1.1667877e-11
       225   200.46779          48754   41             38             37425          11250          1.1675588e-11
       226   203.51038          49274   31             33             37761          11449          1.1716643e-11
       227   206.60821          49788   23             27             38094          11644          1.1746448e-11
       228   209.73259          50226   17             20             38318          11871          1.1750425e-11
       229   212.86388          50662   11             17             38526          12108          1.1763422e-11
       230   216.13893          51092   8              11             38677          12396          1.1772558e-11
       231   219.30064          51577   4              7              38903          12663          1.1786837e-11
       232   222.49667          51956   2              4              39012          12938          1.1771262e-11
       233   225.73263          52384   2              2              39142          13238          1.1773823e-11
       234   229.01151          52763   1              1              39209          13552          1.176059e-11 
       235   232.32137          53239   1              1              39382          13855          1.1783838e-11
       236   235.64349          53594   1              1              39409          14183          1.177315e-11 
       237   238.9959           53956   1              1              39414          14540          1.1757593e-11
       238   242.37947          54475   1              1              39619          14854          1.177576e-11 
       239   245.78357          54874   1              1              39685          15187          1.1787952e-11
       240   249.38097          55281   1              1              39763          15516          1.1773623e-11
       241   252.83451          55617   1              1              39774          15841          1.1769271e-11
       242   256.29184          56084   1              1              39927          16155          1.1781297e-11
       243   259.84301          56411   1              1              39954          16455          1.1768654e-11
       244   263.41047          56791   1              1              40012          16777          1.1738908e-11
       245   266.96212          57152   1              1              40124          17026          1.1740985e-11
       246   270.53311          57501   1              1              40212          17287          1.1735117e-11
       247   274.14971          57858   1              1              40233          17623          1.1734452e-11
       248   277.85925          58199   1              1              40227          17970          1.1723509e-11
       249   281.53126          58621   1              1              40385          18234          1.1700495e-11
       250   285.39236          58928   1              1              40417          18509          1.16905e-11  
       251   289.1315           59354   1              1              40552          18800          1.1710858e-11
       252   292.92327          59579   1              1              40473          19104          1.1673825e-11
       253   296.81505          59959   1              1              40566          19391          1.1675352e-11
       254   300.6893           60319   1              1              40605          19712          1.1660874e-11
       255   304.6038           60708   1              1              40688          20018          1.1651249e-11
       256   308.53646          61008   1              1              40617          20389          1.1659933e-11
       257   312.52864          61263   1              1              40499          20762          1.163316e-11 
       258   316.55101          61687   1              1              40573          21112          1.165055e-11 
       259   320.56151          62033   1              1              40565          21466          1.1633111e-11
       260   324.81501          62420   1              1              40582          21836          1.164804e-11 
       261   328.91497          62706   1              1              40502          22202          1.163328e-11 
       262   333.08428          63073   1              1              40469          22602          1.1643897e-11
       263   337.32643          63445   1              1              40438          23005          1.1652864e-11
       264   341.55446          63763   1              1              40342          23419          1.1651795e-11
       265   345.80697          64070   1              1              40197          23871          1.1635783e-11
       266   350.08297          64428   1              1              40115          24311          1.1641978e-11
       267   354.29267          64771   1              1              39980          24789          1.1642628e-11
       268   358.65894          65087   1              1              39840          25245          1.1652155e-11
       269   362.91485          65392   1              1              39700          25690          1.1648773e-11
       270   367.52509          65628   1              1              39484          26142          1.162473e-11 
       271   371.95248          66083   1              1              39474          26607          1.1633165e-11
       272   376.41694          66374   1              1              39288          27084          1.1641312e-11
       273   380.85086          66759   1              1              39218          27539          1.1652853e-11
       274   385.29642          67010   1              1              38972          28036          1.1658833e-11
       275   389.74868          67384   1              1              38879          28503          1.1689986e-11
       276   394.19915          67803   1              1              38825          28976          1.1713005e-11
       277   398.8035           68036   1              1              38586          29448          1.1681032e-11
       278   403.4825           68337   1              1              38431          29904          1.1679661e-11
       279   408.13436          68669   1              1              38321          30346          1.1693098e-11
       280   413.07131          68895   1              1              38052          30841          1.1674467e-11
       281   417.7431           69322   1              1              38006          31314          1.1719236e-11
       282   422.59069          69588   1              1              37815          31771          1.1699614e-11
       283   427.33526          69942   1              1              37705          32235          1.1727096e-11
       284   432.18968          70269   1              1              37591          32676          1.1724516e-11
       285   437.03493          70574   1              1              37465          33107          1.1735905e-11
       286   441.94374          70880   1              1              37360          33518          1.1762758e-11
       287   446.91424          71199   1              1              37252          33945          1.1785324e-11
       288   451.95085          71439   1              1              37056          34381          1.175618e-11 
       289   456.98064          71804   1              1              37004          34798          1.1787106e-11
       290   462.21373          72122   1              1              36933          35187          1.1779486e-11
       291   467.33181          72373   1              1              36790          35581          1.1781809e-11
       292   472.43622          72703   1              1              36734          35967          1.1814907e-11
       293   477.61259          73046   1              1              36680          36364          1.182273e-11 
       294   482.84515          73326   1              1              36589          36735          1.1832262e-11
       295   488.15099          73565   1              1              36420          37143          1.1816175e-11
       296   493.39091          74005   1              1              36483          37520          1.1868453e-11
       297   498.63201          74289   1              1              36398          37889          1.1898119e-11
       298   503.99109          74562   1              1              36292          38268          1.1872119e-11
       299   509.44562          74879   1              1              36270          38607          1.1894249e-11
       300   515.06176          75127   1              1              36175          38950          1.1892791e-11
       301   520.55669          75433   1              1              36153          39278          1.1895561e-11
       302   526.12541          75725   1              1              36098          39625          1.192119e-11 
       303   531.72294          76091   1              1              36150          39939          1.1930901e-11
       304   537.34668          76381   1              1              36109          40270          1.1948067e-11
       305   543.03282          76617   1              1              35983          40632          1.1945831e-11
       306   548.80967          76982   1              1              36009          40971          1.1956556e-11
       307   554.5779           77227   1              1              35938          41287          1.1954011e-11
       308   560.40867          77526   1              1              35908          41616          1.1958479e-11
       309   566.29315          77811   1              1              35867          41942          1.1991153e-11
       310   572.39462          78096   1              1              35842          42252          1.1986992e-11
       311   578.34558          78413   1              1              35836          42575          1.1993361e-11
       312   584.35985          78796   1              1              35886          42908          1.2032058e-11
       313   590.41599          79009   1              1              35778          43229          1.2025511e-11
       314   596.53214          79373   1              1              35820          43551          1.2051961e-11
       315   602.70227          79553   1              1              35707          43844          1.202624e-11 
       316   608.93744          79898   1              1              35743          44153          1.2065869e-11
       317   615.19334          80229   1              1              35753          44474          1.2075062e-11
       318   621.477            80480   1              1              35697          44781          1.2065409e-11
       319   627.79215          80829   1              1              35747          45080          1.2088213e-11
       320   634.37675          81034   1              1              35648          45384          1.207509e-11 
Loop time of 634.377 on 16 procs for 320 steps with 81034 atoms

97.6% CPU use with 16 MPI tasks x 1 OpenMP threads

MPI task timing breakdown:
Section |  min time  |  avg time  |  max time  |%varavg| %total
---------------------------------------------------------------
Pair    | 129.93     | 169.13     | 248.52     | 272.3 | 26.66
Neigh   | 20.251     | 38.012     | 87.967     | 334.1 |  5.99
Comm    | 82.131     | 106.86     | 140.64     | 182.7 | 16.85
Output  | 2.4002     | 2.4003     | 2.4007     |   0.0 |  0.38
Modify  | 143.61     | 293.58     | 370.02     | 386.3 | 46.28
Other   |            | 24.39      |            |       |  3.85

Nlocal:        5064.62 ave        9683 max        3727 min
Histogram: 10 2 0 2 0 0 0 0 0 2
Nghost:        3955.44 ave        6279 max        2899 min
Histogram: 6 4 0 2 0 0 0 2 0 2
Neighs:        41803.1 ave       54463 max       34523 min
Histogram: 2 2 4 2 2 2 0 0 0 2

Total # of neighbors = 668849
Ave neighs/atom = 8.2539304
Neighbor list builds = 4797
Dangerous builds = 410

Total wall time: 0:10:54
