LAMMPS (23 Jun 2022 - Update 4)
  using 1 OpenMP thread(s) per MPI task
package omp 0
using multi-threaded neighbor list subroutines
#-----------------------------------------------------------------------------#
#                NUFEB Simulation: Heterotrophic Biofilm Growth               #
#-----------------------------------------------------------------------------#


#-----------------------------System Settings---------------------------------#

units si                                    # using si units (m, s, kg)
atom_style      coccus                      # using nufeb coccus atom style
atom_modify     map array sort 10 0         # map array - find atoms using indices
		                            # sort every 10

boundary        pp pp ff                    # periodic boundaries in x and y
                                            # fixed boundary in z

newton          off                         # forces between local and ghost
                                            # atoms are computed in each
					     # processor without communication

processors      * * 1                       # processor grid

comm_modify     vel yes                     # communicate velocities for ghost atoms

read_data       atom_ch.in	             # read atom.in file which defines domain size
Reading data file ...
  orthogonal box = (0 0 0) to (6e-05 6e-05 6e-05)
  4 by 4 by 1 MPI processor grid
  reading atoms ...
  150 atoms
  read_data CPU = 0.011 seconds
                                            # and initial atoms


#--------------------Microbes and Functional Groups-------------------------#

group           CROSS1   type 1               # assign type 1,2 atoms to CROSS group
50 atoms in group CROSS1
group           CROSS2   type 2
50 atoms in group CROSS2
group		CHEATER  type 3
50 atoms in group CHEATER
group           dead     type 4
0 atoms in group dead

neighbor        5e-7 bin                   # setting neighbour skin distance and style

neigh_modify    check yes                  # rebuild neighbour list if any atom
                                           # had moved more than half the skin distance


#--------------------------Mesh Grid and Substrates--------------------------#

# defining grid sytle, substrate names, and grid size
grid_style      nufeb/chemostat 3 sub metab1 metab2 5e-6

# set diffusion boundary conditions and initial concentrations (liquid:kg/m3)
grid_modify     set sub      pp pp nd  1.8e-4
No /omp style for force computation currently active
grid_modify     set metab1   pp pp nd  1e-4
No /omp style for force computation currently active
grid_modify     set metab2   pp pp nd  1e-4
No /omp style for force computation currently active


#--------------------------Biological Processes-------------------------------#

# heterotrophs growth
fix growth_cross1 CROSS1 nufeb/growth/cross1 sub 3.5e-5 metab2 4e-3 metab1 growth 0.009 yield 0.6 decay 2.6e-6 metab1_exp 20

fix growth_cross2 CROSS2 nufeb/growth/cross2 sub 3.5e-5 metab1 4e-3 metab2 growth 0.009 yield 0.6 decay 2.6e-6 metab2_exp 20

fix growth_cheater CHEATER nufeb/growth/cheater sub 3.5e-5 metab1 1e-3 metab2 1e-3 growth 0.009 yield 0.6 decay 2.6e-6
# heterotrophs division, division diameter: 1.36e-6
fix div1 CROSS1 nufeb/division/coccus 1.36e-6 728
fix div2 CROSS2 nufeb/division/coccus 1.36e-6 2606
fix div3 CHEATER nufeb/division/coccus 1.36e-6 5734

fix death1 CROSS1 nufeb/death/diameter dead 5.43e-7
fix death2 CROSS2 nufeb/death/diameter dead 5.43e-7
fix death3 CHEATER nufeb/death/diameter dead 5.43e-7

#---------------------------Physical Processes--------------------------------#

pair_style  gran/hooke/history 1e-4 NULL 1e-5 NULL 0.0 0    # pairwise interaction
pair_coeff  * *                                             # between atoms

# pairwise interaction between z-wall and atoms
fix wall all wall/gran hooke/history 1e-3 NULL 1e-4 NULL 0 0 zplane 0.0 1e-04

fix vis all viscous 1e-5                                    # viscous damping force

fix grav all gravity 9.81 vector 0.0 0.0 -1.0

fix nve all nve/limit 1e-7                                  # NVE integration with
                                                            # maximum distance limit


#---------------------------Post-Physical Processes---------------------------#

fix coeff_sub all nufeb/diffusion_coeff sub ratio 0.8       # defining diffusion coeff in the biofilm
fix coeff_metab1 all nufeb/diffusion_coeff metab1 ratio 0.8    # region is 80% of the value in liquid
fix coeff_metab2 all nufeb/diffusion_coeff metab2 ratio 0.8

#---------------------------Chemical Processes---------------------------------#

fix diff_sub all nufeb/diffusion_reaction sub 1e-9        # diffusion reaction for updating
fix diff_metab1 all nufeb/diffusion_reaction metab1 4e-9     # distribusion of substrate concentration
fix diff_metab2 all nufeb/diffusion_reaction metab2 4e-9

#--------------------------Computations and Outputs----------------------------#

variable mass equal "mass(all)"                             # total mass
variable ncross1 equal "count(CROSS1)"                      # total # of CROSS1
variable ncross2 equal "count(CROSS2)"                      # total # of CROSS2
variable ncheater equal "count(CHEATER)"
variable ndead equal "count(dead)"

shell mkdir vtk_NEPS_ch                                            # dump vtk files to /vtk folder
dump du1 all vtk 10 vtk_NEPS_ch/dump*.vtu id type diameter         # require build NUFEB with vtk option
dump du2 all grid/vtk 10 vtk_NEPS_ch/dump_%_*.vti con rea den gro

#dump du3 all movie 10 movie.avi type diameter view 80 60    # dump video
#dump_modify du3 acolor 1 blue acolor 2 lightgrey framerate 10


                                                            # dump hdf5 files to /hdf5 folder
#shell mkdir hdf5                                           # require build NUFEB with hdf5 option
#dump du3 all nufeb/hdf5 10 dump.h5 id type x y z vx vy vz fx fy fz radius conc reac

thermo_style custom step cpu atoms v_ncross1 v_ncross2 v_ncheater v_ndead v_mass     # screen and log outputs
thermo 1
thermo_modify   lost ignore

#-----------------------------------Run----------------------------------------#

# issue run command, define timesteps for physical (pairdt) and chemical (diffdt) processes
run_style nufeb diffdt 1e-4 difftol 1e-6 pairdt 1e-2 pairtol 1 pairmax 1000 diffmax 5000

timestep 12000                                               # define biological timesteps (1000s)

run 320                                                    # growing biofilm for 900x1000s
Generated 0 of 6 mixed pair_coeff terms from geometric mixing rule
Last active /omp style is pair_style gran/hooke/history/omp
Neighbor list info ...
  update every 1 steps, delay 10 steps, check yes
  max neighbors/atom: 2000, page size: 100000
  master list distance cutoff = 2.49e-06
  ghost atom cutoff = 2.49e-06
  binsize = 1.245e-06, bins = 49 49 49
  1 neighbor lists, perpetual/occasional/extra = 1 0 0
  (1) pair gran/hooke/history/omp, perpetual
      attributes: half, newton off, size, history, omp
      pair build: half/size/bin/newtoff/omp
      stencil: full/bin/3d
      bin: standard
Per MPI rank memory allocation (min/avg/max) = 11.02 | 11.02 | 11.02 Mbytes
   Step          CPU          Atoms      v_ncross1      v_ncross2      v_ncheater      v_ndead         v_mass    
         0   0                    150   50             50             50             0              1.3295396e-13
         1   0.39607006           273   96             91             86             0              1.9616795e-13
         2   0.77680023           433   149            149            135            0              2.2439195e-13
         3   1.092132             547   174            197            176            0              2.455932e-13 
         4   1.3817617            592   189            215            188            0              2.645053e-13 
         5   1.5859188            633   200            229            204            0              2.8194869e-13
         6   1.7478895            659   210            233            216            0              2.9873809e-13
         7   1.8783925            703   216            253            234            0              3.1478005e-13
         8   2.0191732            746   229            271            246            0              3.301801e-13 
         9   2.1248425            776   235            283            258            0              3.4471464e-13
        10   2.2495514            810   241            291            278            0              3.5853651e-13
        11   2.3485068            838   247            300            291            0              3.7184883e-13
        12   2.4584474            873   257            307            309            0              3.844922e-13 
        13   2.5469421            905   266            315            324            0              3.9637573e-13
        14   2.6338205            930   272            322            336            0              4.0759485e-13
        15   2.7114341            958   278            332            348            0              4.1840148e-13
        16   2.7832849            988   287            337            364            0              4.2852151e-13
        17   2.8546509           1011   292            342            377            0              4.3814616e-13
        18   2.9249836           1042   295            353            394            0              4.4737678e-13
        19   2.9944598           1061   301            358            402            0              4.5617843e-13
        20   3.0770854           1080   302            365            413            0              4.6458623e-13
        21   3.1469694           1104   304            371            429            0              4.7263211e-13
        22   3.2156279           1123   307            372            444            0              4.8032535e-13
        23   3.2970647           1143   309            375            459            0              4.8767358e-13
        24   3.366305            1172   315            378            479            0              4.9476141e-13
        25   3.4353895           1192   320            381            491            0              5.0147611e-13
        26   3.4891678           1213   326            386            501            0              5.0790851e-13
        27   3.5387018           1232   327            393            512            0              5.1392832e-13
        28   3.6305543           1249   331            395            523            0              5.1967611e-13
        29   3.709201            1272   334            397            541            0              5.2529074e-13
        30   3.7927133           1288   338            399            551            0              5.3070337e-13
        31   3.8618517           1308   341            404            563            0              5.3595832e-13
        32   3.9212381           1317   342            404            571            0              5.4103424e-13
        33   3.9785882           1332   344            406            582            0              5.4584029e-13
        34   4.0359758           1347   345            406            596            0              5.5042409e-13
        35   4.0978329           1357   347            407            603            0              5.5483642e-13
        36   4.1474977           1374   349            408            617            0              5.5910045e-13
        37   4.1854997           1391   350            409            632            0              5.6316982e-13
        38   4.235483            1402   352            410            640            0              5.6703361e-13
        39   4.2858921           1415   353            410            652            0              5.7069975e-13
        40   4.3519545           1428   353            411            664            0              5.742321e-13 
        41   4.3991442           1444   356            414            674            0              5.7761904e-13
        42   4.4465814           1462   358            417            687            0              5.8087498e-13
        43   4.5127623           1478   360            418            700            0              5.839724e-13 
        44   5.1223687           1492   361            420            711            0              5.870872e-13 
        45   5.1615197           1504   364            422            718            0              5.9011119e-13
        46   5.2174399           1513   365            423            725            0              5.9292558e-13
        47   5.2839612           1524   367            423            734            0              5.956976e-13 
        48   5.3238987           1538   368            425            745            0              5.9843945e-13
        49   5.3976617           1542   369            425            748            0              6.0107273e-13
        50   5.4851048           1549   370            426            753            0              6.0378907e-13
        51   5.5776204           1559   371            426            762            0              6.0646285e-13
        52   5.6782214           1570   372            426            772            0              6.0927543e-13
        53   5.7876458           1585   373            427            785            0              6.1228822e-13
        54   5.8902587           1597   373            427            797            0              6.1555129e-13
        55   6.0079086           1613   373            428            811            1              6.1898455e-13
        56   6.125084            1624   373            429            820            2              6.226249e-13 
        57   6.2575933           1642   375            429            836            2              6.2646887e-13
        58   6.3777392           1658   377            429            849            3              6.305959e-13 
        59   6.4766947           1676   378            429            864            5              6.3488693e-13
        60   6.6114997           1688   378            429            871            10             6.3920945e-13
        61   6.7130763           1701   379            429            879            14             6.4365598e-13
        62   6.8045508           1718   379            430            893            16             6.4812702e-13
        63   6.8898195           1732   380            431            897            24             6.5256828e-13
        64   6.9751992           1746   381            431            901            33             6.5701131e-13
        65   7.0515742           1765   382            431            910            42             6.6139465e-13
        66   7.1214255           1774   383            431            906            54             6.657019e-13 
        67   7.2117382           1792   383            432            913            64             6.6990491e-13
        68   7.3183833           1807   383            432            919            73             6.7413015e-13
        69   7.4310022           1821   383            432            929            77             6.7844349e-13
        70   7.583088            1833   383            432            935            83             6.8280838e-13
        71   7.7696163           1857   383            432            950            92             6.8745527e-13
        72   7.9721544           1877   383            432            959            103            6.9246587e-13
        73   8.1676034           1897   383            432            972            110            6.9801748e-13
        74   8.3587808           1916   383            432            986            115            7.0398449e-13
        75   8.5775927           1936   383            432            995            126            7.1028005e-13
        76   8.768507            1956   383            432            1007           134            7.1709508e-13
        77   8.9265092           1978   383            432            1021           142            7.2404751e-13
        78   9.0746206           1998   383            432            1041           142            7.3099103e-13
        79   9.2053088           2022   383            433            1056           150            7.3780759e-13
        80   9.3417965           2050   383            433            1079           155            7.4445657e-13
        81   9.4509954           2070   383            433            1088           166            7.5092178e-13
        82   9.549569            2091   383            433            1100           175            7.5718549e-13
        83   9.6358181           2115   383            434            1121           177            7.6320397e-13
        84   9.7517863           2137   383            434            1139           181            7.6893523e-13
        85   9.9087753           2155   383            434            1153           185            7.7466621e-13
        86   10.083956           2180   384            434            1175           187            7.8063716e-13
        87   10.300663           2206   384            434            1200           188            7.8675831e-13
        88   10.820064           2225   384            434            1213           194            7.9324946e-13
        89   11.092198           2249   384            434            1231           200            8.0022886e-13
        90   43.810901           2279   385            434            1259           201            8.0792274e-13
        91   44.066336           2307   385            434            1283           205            8.1620985e-13
        92   44.308474           2335   385            434            1307           209            8.2485735e-13
        93   44.511844           2362   385            434            1330           213            8.3367348e-13
        94   44.706752           2392   385            434            1355           218            8.4241345e-13
        95   44.884762           2423   385            434            1381           223            8.5102434e-13
        96   45.032778           2447   385            434            1402           226            8.592255e-13 
        97   45.230139           2479   385            434            1430           230            8.6728354e-13
        98   45.399636           2511   385            434            1458           234            8.7571278e-13
        99   45.670077           2539   385            434            1483           237            8.8381277e-13
       100   46.003092           2575   385            434            1513           243            8.9287967e-13
       101   46.30493            2611   385            434            1541           251            9.0266393e-13
       102   46.684449           2655   385            434            1581           255            9.1327616e-13
       103   47.059301           2694   385            434            1617           258            9.2555565e-13
       104   47.428327           2746   385            434            1668           259            9.3899196e-13
       105   47.808983           2797   385            434            1715           263            9.5320446e-13
       106   48.168276           2851   385            434            1761           271            9.683947e-13 
       107   48.452002           2905   385            434            1807           279            9.8368039e-13
       108   48.732348           2969   385            434            1869           281            9.9921802e-13
       109   49.016228           3033   385            434            1929           285            1.0147344e-12
       110   49.302842           3099   385            434            1990           290            1.0301457e-12
       111   49.622668           3158   385            434            2049           290            1.045576e-12 
       112   49.979888           3226   385            434            2114           293            1.0615672e-12
       113   50.326279           3289   385            433            2174           297            1.0777955e-12
       114   50.710106           3371   385            433            2255           298            1.0943229e-12
       115   51.097995           3435   385            433            2314           303            1.1119519e-12
       116   51.475052           3514   385            432            2389           308            1.1307292e-12
       117   51.856695           3599   385            431            2468           315            1.1500997e-12
       118   52.209849           3687   385            431            2548           323            1.1699835e-12
       119   52.564997           3757   385            430            2617           325            1.1896648e-12
       120   52.933951           3841   385            430            2700           326            1.2091959e-12
       121   53.272483           3920   385            429            2775           331            1.2284705e-12
       122   53.576452           3999   385            427            2852           335            1.2474606e-12
       123   53.949393           4076   385            427            2927           337            1.2660166e-12
       124   54.283161           4158   385            425            3004           344            1.2847533e-12
       125   54.699643           4234   385            424            3074           351            1.3032849e-12
       126   55.109813           4333   385            424            3171           353            1.3233393e-12
       127   55.524401           4429   385            423            3264           357            1.3438845e-12
       128   55.932763           4517   385            423            3352           357            1.3654028e-12
       129   56.341142           4619   385            423            3452           359            1.3877426e-12
       130   75.158343           4717   385            423            3550           359            1.4105336e-12
       131   75.566808           4811   385            423            3642           361            1.4335785e-12
       132   75.962329           4902   385            422            3731           364            1.4563866e-12
       133   76.330257           5005   385            422            3833           365            1.4789227e-12
       134   76.705255           5092   385            421            3919           367            1.5008344e-12
       135   77.095941           5187   385            421            4014           367            1.5224728e-12
       136   77.495759           5284   385            421            4111           367            1.5438089e-12
       137   77.933831           5378   385            420            4204           369            1.5650123e-12
       138   78.389508           5479   385            420            4305           369            1.5873541e-12
       139   78.832732           5568   385            420            4394           369            1.6107455e-12
       140   79.352725           5661   385            420            4487           369            1.6349611e-12
       141   79.822042           5784   385            419            4609           371            1.6606738e-12
       142   80.282494           5883   385            419            4708           371            1.6872423e-12
       143   80.731674           5998   385            418            4821           374            1.7145797e-12
       144   81.20113            6097   385            418            4918           376            1.7419441e-12
       145   81.663713           6219   385            418            5036           380            1.7693865e-12
       146   82.11616            6341   385            417            5156           383            1.7967909e-12
       147   82.589155           6466   385            417            5273           391            1.824307e-12 
       148   83.067903           6593   385            417            5387           404            1.8522967e-12
       149   83.542702           6710   385            417            5494           414            1.8811158e-12
       150   84.042421           6844   382            417            5607           438            1.9110932e-12
       151   84.531159           6981   382            417            5721           461            1.9424217e-12
       152   85.024708           7130   382            417            5851           480            1.9751044e-12
       153   85.519855           7280   380            417            5966           517            2.0086798e-12
       154   86.004901           7421   380            417            6071           553            2.0434854e-12
       155   86.489741           7570   379            417            6174           600            2.0793513e-12
       156   87.006911           7735   379            417            6294           645            2.1157301e-12
       157   87.539254           7894   379            417            6409           689            2.1526183e-12
       158   88.071084           8057   379            417            6524           737            2.1893428e-12
       159   88.635724           8235   379            417            6649           790            2.2268074e-12
       160   89.236696           8408   378            417            6776           837            2.2661579e-12
       161   89.809267           8572   378            417            6891           886            2.3059747e-12
       162   90.385878           8761   378            417            7032           934            2.3486228e-12
       163   90.963547           8962   378            417            7182           985            2.3930657e-12
       164   91.58979            9164   378            417            7326           1043           2.439259e-12 
       165   92.20274            9364   378            417            7470           1099           2.4867963e-12
       166   92.789512           9568   377            417            7615           1159           2.5358834e-12
       167   93.401343           9796   377            417            7795           1207           2.5859212e-12
       168   94.030656          10007   376            417            7949           1265           2.6369417e-12
       169   94.692396          10235   376            417            8112           1330           2.6885139e-12
       170   95.423461          10458   376            417            8270           1395           2.7411731e-12
       171   96.168641          10690   376            417            8447           1450           2.7958532e-12
       172   96.901357          10915   376            417            8623           1499           2.8520418e-12
       173   97.644463          11175   376            417            8826           1556           2.9131085e-12
       174   98.429719          11440   376            417            9045           1602           2.9776764e-12
       175   99.243263          11706   376            417            9270           1643           3.045551e-12 
       176   100.05979          11978   376            417            9486           1699           3.1164787e-12
       177   100.87612          12259   376            417            9713           1753           3.1900787e-12
       178   101.73706          12562   376            417            9932           1837           3.2647608e-12
       179   102.64945          12883   376            417            10191          1899           3.3427865e-12
       180   103.64952          13184   375            417            10428          1964           3.4271735e-12
       181   104.71334          13533   375            416            10719          2023           3.5192106e-12
       182   105.84686          13885   374            416            11021          2074           3.619783e-12 
       183   107.06407          14303   374            416            11399          2114           3.7306349e-12
       184   108.48701          14706   374            416            11745          2171           3.8507611e-12
       185   110.01822          15150   373            416            12133          2228           3.9757712e-12
       186   111.74359          15582   373            416            12514          2279           4.1087411e-12
       187   113.7369           16012   373            416            12890          2333           4.2436015e-12
       188   115.92336          16511   373            416            13328          2394           4.3802563e-12
       189   118.28541          16995   373            416            13748          2458           4.5144248e-12
       190   120.75359          17505   372            416            14199          2518           4.6563591e-12
       191   123.19388          17966   372            416            14607          2571           4.788547e-12 
       192   125.66757          18487   372            416            15086          2613           4.9334459e-12
       193   128.18022          18982   372            416            15535          2659           5.0755618e-12
       194   130.7269           19487   372            416            15974          2725           5.2235957e-12
       195   133.32177          20081   372            415            16509          2785           5.3742976e-12
       196   135.92323          20625   372            415            16998          2840           5.5380491e-12
       197   138.54466          21186   372            415            17484          2915           5.6925927e-12
       198   141.18039          21788   372            415            17995          3006           5.8563969e-12
       199   143.81392          22384   372            414            18509          3089           6.0279125e-12
       200   146.54223          23017   371            414            19050          3182           6.1931221e-12
       201   149.22705          23673   371            413            19640          3249           6.3734149e-12
       202   151.96883          24291   371            413            20168          3339           6.5350487e-12
       203   154.64291          24932   371            413            20725          3423           6.7144968e-12
       204   157.35006          25614   369            413            21317          3515           6.8926283e-12
       205   160.03776          26288   369            412            21886          3621           7.0784046e-12
       206   162.73             27021   367            411            22506          3737           7.2670986e-12
       207   165.45234          27724   366            408            23070          3880           7.4564667e-12
       208   168.14189          28478   366            407            23683          4022           7.6688655e-12
       209   170.83861          29241   366            406            24300          4169           7.8727876e-12
       210   173.60852          30107   365            403            24998          4341           8.0953012e-12
       211   176.39002          30825   364            401            25569          4491           8.2884789e-12
       212   179.10603          31625   362            401            26186          4676           8.4928194e-12
       213   181.78572          32457   362            393            26841          4861           8.7018078e-12
       214   184.44766          33253   359            387            27435          5072           8.923884e-12 
       215   187.17756          34027   353            382            27978          5314           9.1058076e-12
       216   189.88028          34905   352            376            28629          5548           9.3286241e-12
       217   192.6171           35715   346            373            29215          5781           9.5193678e-12
       218   195.31176          36512   339            364            29756          6053           9.7255658e-12
       219   198.02688          37325   332            354            30307          6332           9.9050438e-12
       220   200.84935          38071   326            344            30788          6613           1.0074797e-11
       221   203.6143           38852   315            331            31287          6919           1.0256369e-11
       222   206.36966          39553   302            325            31696          7230           1.0407461e-11
       223   209.13916          40438   289            308            32299          7542           1.0584469e-11
       224   211.95788          41118   274            296            32727          7821           1.0711264e-11
       225   214.77811          41899   261            280            33243          8115           1.0867907e-11
       226   217.56003          42506   249            263            33575          8419           1.097233e-11 
       227   220.40225          43171   233            239            33974          8725           1.1066837e-11
       228   223.234            43872   220            217            34435          9000           1.1193114e-11
       229   226.07954          44406   201            193            34754          9258           1.1256959e-11
       230   229.01694          45018   179            168            35163          9508           1.1353006e-11
       231   231.8573           45619   147            143            35552          9777           1.1416042e-11
       232   234.7372           46217   128            117            35966          10006          1.1489799e-11
       233   237.62743          46717   108            100            36287          10222          1.1533195e-11
       234   240.51328          47228   88             84             36616          10440          1.1583374e-11
       235   243.4475           47796   70             68             36996          10662          1.1643561e-11
       236   246.3882           48310   57             52             37308          10893          1.1664375e-11
       237   249.33088          48768   40             41             37569          11118          1.1688819e-11
       238   252.33445          49308   30             34             37895          11349          1.1695399e-11
       239   255.33789          49742   18             28             38117          11579          1.1725969e-11
       240   258.47129          50254   14             18             38378          11844          1.1762384e-11
       241   261.50129          50711   10             12             38552          12137          1.177284e-11 
       242   264.54248          51171   9              9              38709          12444          1.1782937e-11
       243   267.6289           51620   7              5              38881          12727          1.1783499e-11
       244   270.69355          52075   5              4              39056          13010          1.179012e-11 
       245   273.80733          52400   5              4              39065          13326          1.176885e-11 
       246   276.9448           52872   4              3              39239          13626          1.1787166e-11
       247   280.08211          53222   3              1              39256          13962          1.1760934e-11
       248   283.24136          53665   3              1              39362          14299          1.1783094e-11
       249   286.40597          54093   2              1              39464          14626          1.1792184e-11
       250   289.78125          54476   2              1              39528          14945          1.1784462e-11
       251   293.0361           54850   0              1              39581          15268          1.1756537e-11
       252   296.31176          55225   0              1              39629          15595          1.1756413e-11
       253   299.59361          55653   0              1              39732          15920          1.1749338e-11
       254   302.88164          55965   0              1              39736          16228          1.1743562e-11
       255   306.18024          56301   0              1              39766          16534          1.1720953e-11
       256   309.53879          56702   0              1              39862          16839          1.1697376e-11
       257   312.88153          57122   0              1              40005          17116          1.1709154e-11
       258   316.27391          57592   0              1              40185          17406          1.1728456e-11
       259   319.70302          57854   0              1              40157          17696          1.1710476e-11
       260   323.29296          58176   0              1              40168          18007          1.1697082e-11
       261   326.7573           58621   0              1              40323          18297          1.1704773e-11
       262   330.22749          58972   0              1              40388          18583          1.1694951e-11
       263   333.73587          59329   0              1              40452          18876          1.1697548e-11
       264   337.29357          59599   0              1              40431          19167          1.1671044e-11
       265   340.84094          60018   0              1              40514          19503          1.1677877e-11
       266   344.44661          60361   0              1              40540          19820          1.1681247e-11
       267   348.08127          60786   0              1              40625          20160          1.1698641e-11
       268   351.70732          61172   0              1              40697          20474          1.1697755e-11
       269   355.35764          61501   0              1              40716          20784          1.1716181e-11
       270   359.25657          61793   0              1              40627          21165          1.1691468e-11
       271   362.98936          62178   0              1              40633          21544          1.1696634e-11
       272   366.79756          62460   0              1              40531          21928          1.1657966e-11
       273   370.5941           62870   0              1              40547          22322          1.1667421e-11
       274   374.41606          63211   0              1              40508          22702          1.1674058e-11
       275   378.29153          63469   0              1              40335          23133          1.1655452e-11
       276   382.16697          63845   0              1              40277          23567          1.1666059e-11
       277   386.03856          64140   0              1              40184          23955          1.1642571e-11
       278   389.93492          64508   0              1              40117          24390          1.1638453e-11
       279   393.85224          64812   0              1              40009          24802          1.1662558e-11
       280   397.95163          65118   0              1              39848          25269          1.1663462e-11
       281   401.85919          65478   0              1              39759          25718          1.1668475e-11
       282   405.87156          65878   0              1              39685          26192          1.166416e-11 
       283   409.90601          66236   0              1              39546          26689          1.1669399e-11
       284   413.97172          66409   0              1              39261          27147          1.1668386e-11
       285   417.9155           66747   0              1              39145          27601          1.167315e-11 
       286   421.9331           67045   0              1              38959          28085          1.1665621e-11
       287   425.97873          67449   0              1              38906          28542          1.1669488e-11
       288   430.03384          67725   0              1              38682          29042          1.1668157e-11
       289   434.04643          68063   0              1              38551          29511          1.1688682e-11
       290   438.25248          68320   0              1              38342          29977          1.1701859e-11
       291   442.33933          68731   0              1              38261          30469          1.1723802e-11
       292   446.60507          68994   0              1              38050          30943          1.1688982e-11
       293   450.76752          69324   0              1              37947          31376          1.1711036e-11
       294   454.84707          69775   0              1              37942          31832          1.1758658e-11
       295   459.08454          69957   0              1              37661          32295          1.173884e-11 
       296   463.30284          70251   0              1              37530          32720          1.1741424e-11
       297   467.59807          70531   0              1              37363          33167          1.1726378e-11
       298   471.9273           70879   0              1              37297          33581          1.1740751e-11
       299   476.19533          71241   0              1              37251          33989          1.1767047e-11
       300   480.68867          71567   0              1              37144          34422          1.1792757e-11
       301   485.005            71841   0              1              37032          34808          1.1795203e-11
       302   489.39044          72154   0              1              36933          35220          1.1799221e-11
       303   493.84938          72415   0              1              36786          35628          1.1806738e-11
       304   498.28367          72715   0              1              36705          36009          1.1804853e-11
       305   502.77572          73071   0              1              36668          36402          1.1815008e-11
       306   507.2706           73367   0              1              36613          36753          1.1829621e-11
       307   511.78286          73699   0              1              36553          37145          1.1840833e-11
       308   516.34047          73969   0              1              36471          37497          1.1853462e-11
       309   520.95218          74202   0              1              36305          37896          1.1839219e-11
       310   525.68725          74628   0              1              36345          38282          1.1873725e-11
       311   530.30362          74987   0              1              36344          38642          1.192292e-11 
       312   534.97499          75220   0              1              36218          39001          1.1909265e-11
       313   539.72379          75541   0              1              36189          39351          1.1910567e-11
       314   544.45917          75751   0              1              36040          39710          1.1896844e-11
       315   549.1568           76173   0              1              36126          40046          1.1938553e-11
       316   553.90691          76409   0              1              36029          40379          1.1949338e-11
       317   558.68964          76696   0              1              36006          40689          1.1967414e-11
       318   563.5558           76997   0              1              35978          41018          1.1951668e-11
       319   568.42033          77286   0              1              35963          41322          1.1937148e-11
       320   573.47225          77635   0              1              35993          41641          1.1966321e-11
Loop time of 573.472 on 16 procs for 320 steps with 77635 atoms

94.7% CPU use with 16 MPI tasks x 1 OpenMP threads

MPI task timing breakdown:
Section |  min time  |  avg time  |  max time  |%varavg| %total
---------------------------------------------------------------
Pair    | 89.564     | 127.67     | 199.16     | 284.8 | 22.26
Neigh   | 15.099     | 32.002     | 78.858     | 340.3 |  5.58
Comm    | 63.516     | 81.469     | 101.7      | 159.9 | 14.21
Output  | 53.053     | 53.053     | 53.053     |   0.0 |  9.25
Modify  | 133.78     | 256.84     | 326.01     | 356.9 | 44.79
Other   |            | 22.44      |            |       |  3.91

Nlocal:        4852.19 ave        9495 max        3437 min
Histogram: 8 2 2 2 0 0 0 0 0 2
Nghost:        3781.19 ave        6074 max        2693 min
Histogram: 6 2 2 1 1 0 2 0 0 2
Neighs:        38113.9 ave       51506 max       30542 min
Histogram: 2 4 2 3 1 1 1 0 0 2

Total # of neighbors = 609823
Ave neighs/atom = 7.855001
Neighbor list builds = 4449
Dangerous builds = 378

Total wall time: 0:09:33
