LAMMPS (23 Jun 2022 - Update 4)
  using 1 OpenMP thread(s) per MPI task
package omp 0
using multi-threaded neighbor list subroutines
#-----------------------------------------------------------------------------#
#                NUFEB Simulation: Heterotrophic Biofilm Growth               #
#-----------------------------------------------------------------------------#


#-----------------------------System Settings---------------------------------#

units si                                    # using si units (m, s, kg)
atom_style      coccus                      # using nufeb coccus atom style
atom_modify     map array sort 10 0         # map array - find atoms using indices
		                            # sort every 10

boundary        pp pp ff                    # periodic boundaries in x and y
                                            # fixed boundary in z

newton          off                         # forces between local and ghost
                                            # atoms are computed in each
					     # processor without communication

processors      * * 1                       # processor grid

comm_modify     vel yes                     # communicate velocities for ghost atoms

read_data       atom_ch.in	             # read atom.in file which defines domain size
Reading data file ...
  orthogonal box = (0 0 0) to (6e-05 6e-05 6e-05)
  4 by 4 by 1 MPI processor grid
  reading atoms ...
  150 atoms
  read_data CPU = 0.023 seconds
                                            # and initial atoms


#--------------------Microbes and Functional Groups-------------------------#

group           CROSS1   type 1               # assign type 1,2 atoms to CROSS group
50 atoms in group CROSS1
group           CROSS2   type 2
50 atoms in group CROSS2
group		CHEATER  type 3
50 atoms in group CHEATER
group           dead     type 4
0 atoms in group dead

neighbor        5e-7 bin                   # setting neighbour skin distance and style

neigh_modify    check yes                  # rebuild neighbour list if any atom
                                           # had moved more than half the skin distance


#--------------------------Mesh Grid and Substrates--------------------------#

# defining grid sytle, substrate names, and grid size
grid_style      nufeb/chemostat 3 sub metab1 metab2 5e-6

# set diffusion boundary conditions and initial concentrations (liquid:kg/m3)
grid_modify     set sub      pp pp nd  1.8e-4
No /omp style for force computation currently active
grid_modify     set metab1   pp pp nd  1e-4
No /omp style for force computation currently active
grid_modify     set metab2   pp pp nd  1e-4
No /omp style for force computation currently active


#--------------------------Biological Processes-------------------------------#

# heterotrophs growth
fix growth_cross1 CROSS1 nufeb/growth/cross1 sub 3.5e-5 metab2 4e-3 metab1 growth 0.009 yield 0.6 decay 2.6e-6 metab1_exp 20

fix growth_cross2 CROSS2 nufeb/growth/cross2 sub 3.5e-5 metab1 4e-3 metab2 growth 0.009 yield 0.6 decay 2.6e-6 metab2_exp 20

fix growth_cheater CHEATER nufeb/growth/cheater sub 3.5e-5 metab1 1e-3 metab2 1e-3 growth 0.009 yield 0.6 decay 2.6e-6
# heterotrophs division, division diameter: 1.36e-6
fix div1 CROSS1 nufeb/division/coccus 1.36e-6 679
fix div2 CROSS2 nufeb/division/coccus 1.36e-6 2410
fix div3 CHEATER nufeb/division/coccus 1.36e-6 5293

fix death1 CROSS1 nufeb/death/diameter dead 5.43e-7
fix death2 CROSS2 nufeb/death/diameter dead 5.43e-7
fix death3 CHEATER nufeb/death/diameter dead 5.43e-7

#---------------------------Physical Processes--------------------------------#

pair_style  gran/hooke/history 1e-4 NULL 1e-5 NULL 0.0 0    # pairwise interaction
pair_coeff  * *                                             # between atoms

# pairwise interaction between z-wall and atoms
fix wall all wall/gran hooke/history 1e-3 NULL 1e-4 NULL 0 0 zplane 0.0 1e-04

fix vis all viscous 1e-5                                    # viscous damping force

fix grav all gravity 9.81 vector 0.0 0.0 -1.0

fix nve all nve/limit 1e-7                                  # NVE integration with
                                                            # maximum distance limit


#---------------------------Post-Physical Processes---------------------------#

fix coeff_sub all nufeb/diffusion_coeff sub ratio 0.8       # defining diffusion coeff in the biofilm
fix coeff_metab1 all nufeb/diffusion_coeff metab1 ratio 0.8    # region is 80% of the value in liquid
fix coeff_metab2 all nufeb/diffusion_coeff metab2 ratio 0.8

#---------------------------Chemical Processes---------------------------------#

fix diff_sub all nufeb/diffusion_reaction sub 1e-9        # diffusion reaction for updating
fix diff_metab1 all nufeb/diffusion_reaction metab1 4e-9     # distribusion of substrate concentration
fix diff_metab2 all nufeb/diffusion_reaction metab2 4e-9

#--------------------------Computations and Outputs----------------------------#

variable mass equal "mass(all)"                             # total mass
variable ncross1 equal "count(CROSS1)"                      # total # of CROSS1
variable ncross2 equal "count(CROSS2)"                      # total # of CROSS2
variable ncheater equal "count(CHEATER)"
variable ndead equal "count(dead)"

shell mkdir vtk_NEPS_ch                                            # dump vtk files to /vtk folder
dump du1 all vtk 10 vtk_NEPS_ch/dump*.vtu id type diameter         # require build NUFEB with vtk option
dump du2 all grid/vtk 10 vtk_NEPS_ch/dump_%_*.vti con rea den gro

#dump du3 all movie 10 movie.avi type diameter view 80 60    # dump video
#dump_modify du3 acolor 1 blue acolor 2 lightgrey framerate 10


                                                            # dump hdf5 files to /hdf5 folder
#shell mkdir hdf5                                           # require build NUFEB with hdf5 option
#dump du3 all nufeb/hdf5 10 dump.h5 id type x y z vx vy vz fx fy fz radius conc reac

thermo_style custom step cpu atoms v_ncross1 v_ncross2 v_ncheater v_ndead v_mass     # screen and log outputs
thermo 1
thermo_modify   lost ignore

#-----------------------------------Run----------------------------------------#

# issue run command, define timesteps for physical (pairdt) and chemical (diffdt) processes
run_style nufeb diffdt 1e-4 difftol 1e-6 pairdt 1e-2 pairtol 1 pairmax 1000 diffmax 5000

timestep 12000                                               # define biological timesteps (1000s)

run 320                                                    # growing biofilm for 900x1000s
Generated 0 of 6 mixed pair_coeff terms from geometric mixing rule
Last active /omp style is pair_style gran/hooke/history/omp
Neighbor list info ...
  update every 1 steps, delay 10 steps, check yes
  max neighbors/atom: 2000, page size: 100000
  master list distance cutoff = 2.49e-06
  ghost atom cutoff = 2.49e-06
  binsize = 1.245e-06, bins = 49 49 49
  1 neighbor lists, perpetual/occasional/extra = 1 0 0
  (1) pair gran/hooke/history/omp, perpetual
      attributes: half, newton off, size, history, omp
      pair build: half/size/bin/newtoff/omp
      stencil: full/bin/3d
      bin: standard
Per MPI rank memory allocation (min/avg/max) = 11.02 | 11.02 | 11.02 Mbytes
   Step          CPU          Atoms      v_ncross1      v_ncross2      v_ncheater      v_ndead         v_mass    
         0   0                    150   50             50             50             0              1.3295396e-13
         1   0.38256262           273   96             91             86             0              1.9616795e-13
         2   0.75368082           436   150            150            136            0              2.2395581e-13
         3   1.0752504            542   174            197            171            0              2.4517645e-13
         4   1.3698645            587   184            217            186            0              2.644075e-13 
         5   1.5595941            623   196            223            204            0              2.8232438e-13
         6   1.7270467            660   210            233            217            0              2.9912146e-13
         7   1.8671051            702   225            245            232            0              3.1518477e-13
         8   1.9847611            741   233            258            250            0              3.3035129e-13
         9   2.1293374            777   242            270            265            0              3.4489749e-13
        10   2.2573549            805   250            281            274            0              3.5854697e-13
        11   2.386555             839   259            286            294            0              3.7153736e-13
        12   2.4977576            868   268            292            308            0              3.8402664e-13
        13   2.5788548            902   278            296            328            0              3.9566892e-13
        14   2.6565956            925   285            303            337            0              4.0665505e-13
        15   2.7270234            951   292            312            347            0              4.1705959e-13
        16   2.7962981            981   302            318            361            0              4.2697233e-13
        17   2.8679219           1008   308            322            378            0              4.3645301e-13
        18   2.9546457           1028   313            325            390            0              4.4544577e-13
        19   3.0275191           1048   317            330            401            0              4.5411116e-13
        20   3.097396            1071   322            334            415            0              4.6228092e-13
        21   3.175729            1101   330            337            434            0              4.700987e-13 
        22   3.2620337           1111   334            337            440            0              4.7745818e-13
        23   3.3712674           1135   340            341            454            0              4.8454364e-13
        24   3.4296141           1153   345            345            463            0              4.9122932e-13
        25   3.4861415           1177   352            347            478            0              4.9757983e-13
        26   3.5571029           1194   354            350            490            0              5.0347994e-13
        27   3.6188155           1209   356            353            500            0              5.0909657e-13
        28   3.6775976           1233   361            357            515            0              5.1444525e-13
        29   3.7148771           1256   363            363            530            0              5.1963526e-13
        30   3.7912494           1276   367            367            542            0              5.2457376e-13
        31   3.8496899           1286   368            367            551            0              5.2934737e-13
        32   3.9033772           1300   372            369            559            0              5.3392847e-13
        33   3.9549251           1317   377            371            569            0              5.3832659e-13
        34   4.0115292           1332   379            373            580            0              5.4250785e-13
        35   4.0654185           1345   384            376            585            0              5.4637329e-13
        36   4.1163647           1358   390            377            591            0              5.5008651e-13
        37   4.167954            1376   397            378            601            0              5.536428e-13 
        38   4.2052324           1386   398            378            610            0              5.5718522e-13
        39   4.2487887           1397   399            378            620            0              5.6055174e-13
        40   4.3030793           1404   400            378            626            0              5.6377695e-13
        41   4.3435003           1416   401            379            636            0              5.6687066e-13
        42   4.3833319           1429   405            380            644            0              5.6983545e-13
        43   4.4237175           1439   405            380            654            0              5.7265412e-13
        44   4.4547748           1451   406            381            664            0              5.7536714e-13
        45   4.5170013           1464   411            381            672            0              5.7792327e-13
        46   4.581217            1475   414            383            678            0              5.8053086e-13
        47   4.6470783           1491   419            384            688            0              5.8309923e-13
        48   4.7181625           1503   421            385            697            0              5.8566325e-13
        49   4.7717013           1509   421            385            703            0              5.8821155e-13
        50   4.8512849           1515   422            385            708            0              5.9067186e-13
        51   5.1239556           1527   424            385            718            0              5.9307844e-13
        52   5.2212807           1536   425            385            726            0              5.9545023e-13
        53   5.3292798           1546   427            385            734            0              5.9801506e-13
        54   5.4320965           1561   428            385            748            0              6.0084228e-13
        55   5.5538063           1577   429            387            759            2              6.0373926e-13
        56   5.6857279           1594   433            388            770            3              6.0694739e-13
        57   5.810977            1609   434            388            783            4              6.1047182e-13
        58   5.9655307           1622   435            388            795            4              6.1422014e-13
        59   6.1126316           1645   436            388            812            9              6.1834696e-13
        60   6.2624377           1659   436            388            826            9              6.2282521e-13
        61   6.3683841           1679   437            388            844            10             6.2751083e-13
        62   6.4905978           1697   437            388            856            16             6.3219814e-13
        63   6.6249915           1719   439            388            866            26             6.3705676e-13
        64   6.7461642           1736   440            388            870            38             6.4215073e-13
        65   6.8589583           1756   440            388            882            46             6.4738548e-13
        66   6.9637881           1785   441            389            901            54             6.5266943e-13
        67   7.0731021           1804   441            389            912            62             6.5797322e-13
        68   7.172136            1821   442            389            917            73             6.632669e-13 
        69   7.2500875           1844   442            389            935            78             6.6848774e-13
        70   7.353468            1869   442            390            953            84             6.7355261e-13
        71   7.4509852           1888   442            390            962            94             6.7847987e-13
        72   7.5585247           1902   442            390            967            103            6.8352713e-13
        73   7.6445702           1925   442            390            983            110            6.8854751e-13
        74   7.7220785           1948   443            390            1002           113            6.9350643e-13
        75   7.8313855           1971   445            391            1016           119            6.9821271e-13
        76   7.9676789           1990   447            391            1022           130            7.0306043e-13
        77   8.0779221           2012   447            392            1039           134            7.0816425e-13
        78   8.2795184           2038   447            392            1055           144            7.133572e-13 
        79   8.4323905           2059   447            392            1067           153            7.1939702e-13
        80   8.6471159           2079   447            392            1084           156            7.2559397e-13
        81   8.8575651           2102   448            392            1098           164            7.3246353e-13
        82   9.0897752           2131   448            392            1121           170            7.3991146e-13
        83   9.3289221           2159   448            392            1144           175            7.4802742e-13
        84   9.5297356           2198   448            392            1180           178            7.5687495e-13
        85   9.7370955           2225   449            392            1198           186            7.6601812e-13
        86   9.9341581           2268   450            392            1237           189            7.75509e-13  
        87   10.259311           2300   450            392            1265           193            7.8516088e-13
        88   10.430464           2335   450            392            1296           197            7.9499678e-13
        89   10.599214           2366   450            392            1324           200            8.0471627e-13
        90   10.786963           2416   451            392            1368           205            8.1443613e-13
        91   10.940524           2452   451            392            1399           210            8.2411688e-13
        92   11.088866           2494   452            392            1436           214            8.3357013e-13
        93   11.231148           2541   452            392            1474           223            8.4284788e-13
        94   11.408394           2572   452            392            1501           227            8.5197699e-13
        95   11.650131           2612   453            392            1538           229            8.6121006e-13
        96   11.868687           2646   454            392            1563           237            8.7123746e-13
        97   12.114662           2688   454            392            1604           238            8.8127492e-13
        98   12.402661           2727   454            392            1638           243            8.9155903e-13
        99   12.686963           2775   454            392            1679           250            9.0266507e-13
       100   14.886264           2807   454            392            1710           251            9.143016e-13 
       101   15.370357           2866   454            392            1767           253            9.2678181e-13
       102   15.735014           2929   454            392            1824           259            9.4015113e-13
       103   16.07681            2985   454            392            1878           261            9.5439296e-13
       104   16.406475           3040   454            392            1927           267            9.6937533e-13
       105   16.692728           3106   454            392            1988           272            9.8488069e-13
       106   16.967978           3167   454            392            2040           281            1.0004364e-12
       107   17.229109           3224   454            392            2094           284            1.0160054e-12
       108   17.467533           3298   454            392            2164           288            1.0314751e-12
       109   17.714751           3361   454            392            2219           296            1.0466081e-12
       110   17.97633            3417   454            392            2271           300            1.0616148e-12
       111   18.216698           3486   454            392            2331           309            1.0764154e-12
       112   18.43171            3557   453            392            2395           317            1.0911027e-12
       113   18.680829           3619   453            392            2448           326            1.1054307e-12
       114   18.92246            3686   452            392            2507           335            1.1196197e-12
       115   19.252029           3751   452            392            2563           344            1.1336703e-12
       116   19.559359           3818   452            392            2624           350            1.1482057e-12
       117   19.930285           3882   451            392            2680           359            1.1630387e-12
       118   20.284685           3951   451            392            2736           372            1.1788407e-12
       119   20.597877           4027   449            392            2802           384            1.1949702e-12
       120   20.9769             4091   449            392            2856           394            1.2111842e-12
       121   21.288683           4175   449            392            2930           404            1.2279935e-12
       122   21.633375           4242   449            392            2985           416            1.24458e-12  
       123   21.986995           4310   449            391            3045           425            1.2614183e-12
       124   22.305027           4392   448            390            3116           438            1.2785541e-12
       125   22.635948           4475   448            390            3186           451            1.2955488e-12
       126   22.965978           4540   448            390            3242           460            1.3127028e-12
       127   23.30335            4621   448            390            3318           465            1.3297706e-12
       128   23.661922           4697   448            389            3387           473            1.3469299e-12
       129   24.03466            4775   447            387            3461           480            1.364596e-12 
       130   30.117498           4853   447            386            3532           488            1.3824692e-12
       131   30.520354           4945   446            386            3615           498            1.4006978e-12
       132   30.912623           5040   446            385            3701           508            1.4196521e-12
       133   31.30398            5118   446            385            3770           517            1.4391205e-12
       134   31.71175            5218   446            384            3862           526            1.4590062e-12
       135   32.10332            5292   446            383            3932           531            1.4793118e-12
       136   32.476353           5397   446            382            4026           543            1.4997663e-12
       137   32.827116           5492   446            378            4108           560            1.5200637e-12
       138   33.164173           5582   446            376            4188           572            1.5402115e-12
       139   33.52183            5680   446            376            4277           581            1.560127e-12 
       140   33.903206           5787   446            376            4369           596            1.5797745e-12
       141   34.294231           5885   445            376            4450           614            1.5993847e-12
       142   34.704084           5991   444            376            4545           626            1.6195302e-12
       143   35.111488           6098   444            375            4640           639            1.6400431e-12
       144   35.52273            6202   443            374            4720           665            1.6610076e-12
       145   35.949013           6319   442            373            4826           678            1.6829753e-12
       146   36.374218           6428   442            372            4916           698            1.705616e-12 
       147   36.798831           6547   441            371            5022           713            1.7292002e-12
       148   37.21939            6661   441            371            5111           738            1.7533522e-12
       149   37.651253           6772   441            371            5201           759            1.777535e-12 
       150   38.10652            6881   441            371            5288           781            1.8019091e-12
       151   38.536187           6987   441            370            5371           805            1.8261183e-12
       152   38.951733           7125   441            369            5474           841            1.8500067e-12
       153   39.365735           7235   441            369            5554           871            1.873658e-12 
       154   39.814436           7366   440            367            5659           900            1.8972835e-12
       155   40.247399           7484   440            365            5752           927            1.9209435e-12
       156   40.697887           7596   440            365            5837           954            1.9444705e-12
       157   41.14758            7730   440            365            5938           987            1.969129e-12 
       158   41.607741           7868   440            365            6040           1023           1.9942756e-12
       159   42.077393           8011   440            365            6151           1055           2.0205866e-12
       160   42.563353           8119   440            365            6231           1083           2.0475462e-12
       161   43.014215           8248   439            365            6335           1109           2.0751112e-12
       162   43.477355           8386   439            364            6441           1142           2.1030179e-12
       163   43.971509           8529   439            364            6557           1169           2.1309461e-12
       164   44.450296           8648   439            363            6649           1197           2.1585797e-12
       165   44.943048           8796   439            362            6774           1221           2.1860422e-12
       166   45.462371           8926   438            362            6880           1246           2.2133986e-12
       167   45.980504           9094   436            362            7018           1278           2.2418299e-12
       168   46.483542           9242   435            362            7135           1310           2.2704341e-12
       169   47.013839           9379   435            362            7244           1338           2.299406e-12 
       170   47.579516           9515   435            361            7351           1368           2.3295022e-12
       171   48.149584           9674   435            360            7478           1401           2.3609178e-12
       172   48.654431           9799   435            360            7569           1435           2.393462e-12 
       173   49.187982           9964   433            360            7697           1474           2.426463e-12 
       174   49.73278           10124   433            360            7828           1503           2.4597851e-12
       175   50.293426          10271   433            360            7931           1547           2.4930592e-12
       176   50.869311          10440   431            360            8054           1595           2.5266304e-12
       177   51.454102          10608   431            360            8179           1638           2.5608783e-12
       178   52.043168          10774   430            359            8291           1694           2.5951086e-12
       179   52.65119           10938   430            359            8404           1745           2.6309813e-12
       180   53.294768          11127   430            358            8540           1799           2.6682671e-12
       181   53.929957          11291   429            358            8662           1842           2.707341e-12 
       182   54.55227           11468   429            358            8783           1898           2.7481846e-12
       183   55.203409          11651   429            358            8901           1963           2.7905926e-12
       184   55.880672          11852   429            356            9041           2026           2.8345059e-12
       185   56.519217          12056   429            355            9176           2096           2.8787974e-12
       186   57.183328          12253   429            353            9298           2173           2.9237835e-12
       187   57.881125          12477   429            353            9446           2249           2.9700895e-12
       188   58.621136          12710   428            353            9601           2328           3.0176753e-12
       189   59.348939          12941   428            351            9741           2421           3.0688268e-12
       190   60.178219          13170   428            351            9903           2488           3.1235713e-12
       191   61.0209            13417   428            351            10062          2576           3.182266e-12 
       192   61.839327          13685   427            349            10250          2659           3.2452321e-12
       193   62.684874          13964   427            349            10457          2731           3.3096326e-12
       194   63.562444          14236   425            348            10653          2810           3.3765854e-12
       195   64.439253          14544   423            346            10882          2893           3.4465572e-12
       196   65.396453          14827   421            346            11099          2961           3.5203415e-12
       197   66.427324          15136   421            346            11324          3045           3.5996113e-12
       198   67.513151          15495   417            346            11610          3122           3.6878171e-12
       199   68.773705          15865   417            344            11882          3222           3.7843543e-12
       200   70.125835          16270   417            343            12210          3300           3.8879709e-12
       201   71.558999          16644   416            342            12493          3393           4.0027794e-12
       202   73.285475          17087   414            341            12854          3478           4.1222948e-12
       203   75.365675          17537   413            340            13209          3575           4.2464696e-12
       204   77.818496          17969   413            340            13578          3638           4.3744437e-12
       205   80.178963          18409   412            340            13940          3717           4.4984309e-12
       206   82.932762          18870   411            337            14312          3810           4.6212385e-12
       207   85.646428          19317   411            331            14681          3894           4.7473812e-12
       208   88.513149          19788   410            329            15076          3973           4.875373e-12 
       209   91.424784          20291   406            329            15483          4073           5.0107001e-12
       210   94.426101          20766   403            327            15859          4177           5.1447589e-12
       211   97.380479          21280   401            326            16278          4275           5.284196e-12 
       212   100.39806          21805   400            324            16705          4376           5.4333193e-12
       213   103.36645          22296   398            323            17103          4472           5.5698366e-12
       214   106.3506           22829   396            322            17543          4568           5.721742e-12 
       215   109.30829          23350   395            318            17985          4652           5.8557728e-12
       216   112.26439          23892   394            315            18437          4746           6.0192473e-12
       217   115.22476          24488   394            312            18942          4840           6.1886384e-12
       218   118.17413          25094   392            310            19443          4949           6.3509902e-12
       219   121.11036          25737   386            307            19985          5059           6.5327223e-12
       220   124.09079          26396   383            305            20530          5178           6.7123533e-12
       221   127.03463          27039   377            301            21077          5284           6.8795022e-12
       222   129.96612          27696   371            297            21632          5396           7.0611142e-12
       223   132.88992          28391   367            296            22224          5504           7.2364588e-12
       224   135.82129          29082   365            291            22810          5616           7.4315816e-12
       225   138.74337          29791   360            285            23402          5744           7.6323153e-12
       226   141.65831          30514   355            281            24015          5863           7.831623e-12 
       227   144.59579          31335   351            276            24697          6011           8.0432037e-12
       228   147.53269          32102   346            267            25335          6154           8.2466962e-12
       229   150.44052          32784   337            257            25874          6316           8.4256e-12   
       230   153.43749          33607   325            248            26565          6469           8.6369812e-12
       231   156.40058          34413   318            237            27229          6629           8.8422652e-12
       232   159.36845          35199   300            228            27889          6782           9.058599e-12 
       233   162.30876          35972   289            216            28512          6955           9.2516231e-12
       234   165.22685          36811   268            206            29174          7163           9.4521734e-12
       235   168.1863           37631   251            192            29785          7403           9.6449162e-12
       236   171.12576          38471   235            184            30396          7656           9.8527722e-12
       237   174.08805          39224   223            174            30909          7918           1.0039451e-11
       238   177.05732          40018   206            160            31456          8196           1.0223941e-11
       239   180.05962          40751   192            139            31936          8484           1.0378958e-11
       240   183.17237          41573   177            127            32454          8815           1.0547704e-11
       241   186.19186          42339   162            116            32937          9124           1.0704313e-11
       242   189.19758          43019   149            99             33324          9447           1.0840205e-11
       243   192.14134          43685   126            89             33630          9840           1.0954059e-11
       244   195.13452          44316   106            79             33924          10207          1.1065879e-11
       245   198.16215          45022   92             58             34302          10570          1.1168841e-11
       246   201.18978          45648   82             48             34611          10907          1.1269582e-11
       247   204.24161          46270   70             41             34888          11271          1.1374651e-11
       248   207.29568          46815   56             29             35138          11592          1.1426375e-11
       249   210.34171          47472   44             25             35540          11863          1.1506213e-11
       250   213.53395          48033   39             21             35860          12113          1.1574084e-11
       251   216.63414          48680   32             15             36259          12374          1.1649919e-11
       252   219.78546          49174   24             10             36516          12624          1.1688476e-11
       253   222.95505          49654   17             8              36781          12848          1.1715633e-11
       254   226.11279          50205   14             7              37162          13022          1.1771812e-11
       255   229.28588          50617   10             5              37412          13190          1.1761741e-11
       256   232.47297          51207   7              2              37833          13365          1.1822005e-11
       257   235.69391          51624   5              1              38088          13530          1.18273e-11  
       258   238.98058          52114   4              0              38384          13726          1.1847685e-11
       259   242.24511          52618   4              0              38681          13933          1.1867558e-11
       260   245.70966          53020   3              0              38823          14194          1.1863167e-11
       261   249.00025          53518   3              0              39033          14482          1.1887464e-11
       262   252.33711          53905   3              0              39146          14756          1.1875423e-11
       263   255.71912          54241   2              0              39169          15070          1.1847348e-11
       264   259.11548          54730   2              0              39337          15391          1.1881856e-11
       265   262.52992          55078   2              0              39357          15719          1.1853259e-11
       266   265.97035          55423   2              0              39380          16041          1.1814749e-11
       267   269.38405          55904   2              0              39531          16371          1.184733e-11 
       268   272.84277          56241   2              0              39523          16716          1.1837616e-11
       269   276.31677          56699   2              0              39636          17061          1.1849721e-11
       270   279.96134          57062   2              0              39638          17422          1.1815206e-11
       271   283.49622          57433   2              0              39695          17736          1.1793418e-11
       272   287.08308          57889   2              0              39779          18108          1.1839294e-11
       273   290.73158          58181   2              0              39712          18467          1.1811673e-11
       274   294.35445          58581   2              0              39810          18769          1.1795522e-11
       275   297.99595          58941   2              0              39866          19073          1.180047e-11 
       276   301.70646          59313   2              0              39974          19337          1.1785805e-11
       277   305.45175          59686   2              0              40082          19602          1.1767109e-11
       278   309.19314          60035   2              0              40187          19846          1.1757456e-11
       279   312.97173          60305   2              0              40194          20109          1.1747174e-11
       280   316.89755          60762   2              0              40397          20363          1.1760801e-11
       281   320.71733          61085   2              0              40421          20662          1.1752941e-11
       282   324.59156          61398   2              0              40440          20956          1.1743234e-11
       283   328.54234          61816   2              0              40557          21257          1.1731719e-11
       284   332.51619          62194   2              0              40632          21560          1.1743147e-11
       285   336.50741          62587   2              0              40692          21893          1.1758998e-11
       286   340.49631          62837   2              0              40598          22237          1.1733041e-11
       287   344.53941          63164   2              0              40597          22565          1.171583e-11 
       288   348.60224          63531   2              0              40615          22914          1.1732217e-11
       289   352.66914          63927   2              0              40643          23282          1.1738165e-11
       290   356.92778          64244   2              0              40572          23670          1.1713232e-11
       291   361.04141          64583   2              0              40516          24065          1.1706959e-11
       292   365.14291          64929   2              0              40438          24489          1.1720755e-11
       293   369.40893          65245   2              0              40340          24903          1.1735926e-11
       294   373.63976          65531   2              0              40210          25319          1.170724e-11 
       295   377.8938           65988   2              0              40241          25745          1.1744742e-11
       296   382.17739          66254   2              0              40079          26173          1.1704956e-11
       297   386.47604          66606   2              0              39998          26606          1.1724314e-11
       298   390.77323          66888   2              0              39857          27029          1.1723496e-11
       299   395.12642          67210   2              0              39691          27517          1.1709619e-11
       300   399.67859          67513   2              0              39555          27956          1.1690784e-11
       301   403.87588          67935   2              0              39490          28443          1.172581e-11 
       302   408.12047          68280   2              0              39383          28895          1.1736921e-11
       303   412.48351          68587   2              0              39197          29388          1.1752721e-11
       304   416.98756          68806   2              0              38969          29835          1.1728975e-11
       305   421.41094          69274   2              0              38965          30307          1.1754204e-11
       306   425.85323          69536   2              0              38751          30783          1.1748269e-11
       307   430.31452          69908   2              0              38644          31262          1.1777855e-11
       308   434.81163          70151   2              0              38380          31769          1.1768434e-11
       309   439.30637          70456   2              0              38202          32252          1.1779471e-11
       310   444.14721          70760   2              0              38069          32689          1.1782448e-11
       311   448.83261          71078   2              0              37908          33168          1.1760883e-11
       312   453.3084           71475   2              0              37855          33618          1.1796398e-11
       313   457.93031          71765   2              0              37708          34055          1.1801427e-11
       314   462.51127          72029   2              0              37506          34521          1.1832202e-11
       315   467.20699          72355   2              0              37363          34990          1.1817741e-11
       316   471.91503          72801   2              0              37363          35436          1.1855277e-11
       317   476.66266          73021   2              0              37181          35838          1.1857182e-11
       318   481.39871          73290   2              0              37039          36249          1.1855933e-11
       319   486.23251          73561   2              0              36911          36648          1.1846553e-11
       320   491.26614          73916   2              0              36861          37053          1.1851711e-11
Loop time of 491.266 on 16 procs for 320 steps with 73916 atoms

97.8% CPU use with 16 MPI tasks x 1 OpenMP threads

MPI task timing breakdown:
Section |  min time  |  avg time  |  max time  |%varavg| %total
---------------------------------------------------------------
Pair    | 63.572     | 97.997     | 178.78     | 283.0 | 19.95
Neigh   | 9.7706     | 24.632     | 76.271     | 310.5 |  5.01
Comm    | 54.55      | 71.013     | 89.861     | 116.8 | 14.46
Output  | 9.5406     | 9.5407     | 9.541      |   0.0 |  1.94
Modify  | 133.53     | 263.48     | 325.44     | 287.0 | 53.63
Other   |            | 24.6       |            |       |  5.01

Nlocal:        4619.75 ave       10771 max        3018 min
Histogram: 7 3 2 3 0 0 0 0 0 1
Nghost:        3518.94 ave        5588 max        2454 min
Histogram: 4 3 2 2 0 2 1 1 0 1
Neighs:        32713.3 ave       47950 max       24478 min
Histogram: 1 3 4 2 3 2 0 0 0 1

Total # of neighbors = 523413
Ave neighs/atom = 7.0811868
Neighbor list builds = 3978
Dangerous builds = 346

Total wall time: 0:08:56
