LAMMPS (23 Jun 2022 - Update 4)
  using 1 OpenMP thread(s) per MPI task
package omp 0
using multi-threaded neighbor list subroutines
#-----------------------------------------------------------------------------#
#                NUFEB Simulation: Heterotrophic Biofilm Growth               #
#-----------------------------------------------------------------------------#


#-----------------------------System Settings---------------------------------#

units si                                    # using si units (m, s, kg)
atom_style      coccus                      # using nufeb coccus atom style
atom_modify     map array sort 10 0         # map array - find atoms using indices
		                            # sort every 10

boundary        pp pp ff                    # periodic boundaries in x and y
                                            # fixed boundary in z

newton          off                         # forces between local and ghost
                                            # atoms are computed in each
					     # processor without communication

processors      * * 1                       # processor grid

comm_modify     vel yes                     # communicate velocities for ghost atoms

read_data       atom_ch.in	             # read atom.in file which defines domain size
Reading data file ...
  orthogonal box = (0 0 0) to (6e-05 6e-05 6e-05)
  4 by 4 by 1 MPI processor grid
  reading atoms ...
  150 atoms
  read_data CPU = 0.015 seconds
                                            # and initial atoms


#--------------------Microbes and Functional Groups-------------------------#

group           CROSS1   type 1               # assign type 1,2 atoms to CROSS group
50 atoms in group CROSS1
group           CROSS2   type 2
50 atoms in group CROSS2
group		CHEATER  type 3
50 atoms in group CHEATER
group           dead     type 4
0 atoms in group dead

neighbor        5e-7 bin                   # setting neighbour skin distance and style

neigh_modify    check yes                  # rebuild neighbour list if any atom
                                           # had moved more than half the skin distance


#--------------------------Mesh Grid and Substrates--------------------------#

# defining grid sytle, substrate names, and grid size
grid_style      nufeb/chemostat 3 sub metab1 metab2 5e-6

# set diffusion boundary conditions and initial concentrations (liquid:kg/m3)
grid_modify     set sub      pp pp nd  1.8e-4
No /omp style for force computation currently active
grid_modify     set metab1   pp pp nd  1e-4
No /omp style for force computation currently active
grid_modify     set metab2   pp pp nd  1e-4
No /omp style for force computation currently active


#--------------------------Biological Processes-------------------------------#

# heterotrophs growth
fix growth_cross1 CROSS1 nufeb/growth/cross1 sub 3.5e-5 metab2 4e-3 metab1 growth 0.009 yield 0.6 decay 2.6e-6 metab1_exp 20

fix growth_cross2 CROSS2 nufeb/growth/cross2 sub 3.5e-5 metab1 4e-3 metab2 growth 0.009 yield 0.6 decay 2.6e-6 metab2_exp 20

fix growth_cheater CHEATER nufeb/growth/cheater sub 3.5e-5 metab1 1e-3 metab2 1e-3 growth 0.009 yield 0.6 decay 2.6e-6
# heterotrophs division, division diameter: 1.36e-6
fix div1 CROSS1 nufeb/division/coccus 1.36e-6 328
fix div2 CROSS2 nufeb/division/coccus 1.36e-6 1006
fix div3 CHEATER nufeb/division/coccus 1.36e-6 2134

fix death1 CROSS1 nufeb/death/diameter dead 5.43e-7
fix death2 CROSS2 nufeb/death/diameter dead 5.43e-7
fix death3 CHEATER nufeb/death/diameter dead 5.43e-7

#---------------------------Physical Processes--------------------------------#

pair_style  gran/hooke/history 1e-4 NULL 1e-5 NULL 0.0 0    # pairwise interaction
pair_coeff  * *                                             # between atoms

# pairwise interaction between z-wall and atoms
fix wall all wall/gran hooke/history 1e-3 NULL 1e-4 NULL 0 0 zplane 0.0 1e-04

fix vis all viscous 1e-5                                    # viscous damping force

fix grav all gravity 9.81 vector 0.0 0.0 -1.0

fix nve all nve/limit 1e-7                                  # NVE integration with
                                                            # maximum distance limit


#---------------------------Post-Physical Processes---------------------------#

fix coeff_sub all nufeb/diffusion_coeff sub ratio 0.8       # defining diffusion coeff in the biofilm
fix coeff_metab1 all nufeb/diffusion_coeff metab1 ratio 0.8    # region is 80% of the value in liquid
fix coeff_metab2 all nufeb/diffusion_coeff metab2 ratio 0.8

#---------------------------Chemical Processes---------------------------------#

fix diff_sub all nufeb/diffusion_reaction sub 1e-9        # diffusion reaction for updating
fix diff_metab1 all nufeb/diffusion_reaction metab1 4e-9     # distribusion of substrate concentration
fix diff_metab2 all nufeb/diffusion_reaction metab2 4e-9

#--------------------------Computations and Outputs----------------------------#

variable mass equal "mass(all)"                             # total mass
variable ncross1 equal "count(CROSS1)"                      # total # of CROSS1
variable ncross2 equal "count(CROSS2)"                      # total # of CROSS2
variable ncheater equal "count(CHEATER)"
variable ndead equal "count(dead)"

shell mkdir vtk_NEPS_ch                                            # dump vtk files to /vtk folder
dump du1 all vtk 10 vtk_NEPS_ch/dump*.vtu id type diameter         # require build NUFEB with vtk option
dump du2 all grid/vtk 10 vtk_NEPS_ch/dump_%_*.vti con rea den gro

#dump du3 all movie 10 movie.avi type diameter view 80 60    # dump video
#dump_modify du3 acolor 1 blue acolor 2 lightgrey framerate 10


                                                            # dump hdf5 files to /hdf5 folder
#shell mkdir hdf5                                           # require build NUFEB with hdf5 option
#dump du3 all nufeb/hdf5 10 dump.h5 id type x y z vx vy vz fx fy fz radius conc reac

thermo_style custom step cpu atoms v_ncross1 v_ncross2 v_ncheater v_ndead v_mass     # screen and log outputs
thermo 1
thermo_modify   lost ignore

#-----------------------------------Run----------------------------------------#

# issue run command, define timesteps for physical (pairdt) and chemical (diffdt) processes
run_style nufeb diffdt 1e-4 difftol 1e-6 pairdt 1e-2 pairtol 1 pairmax 1000 diffmax 5000

timestep 12000                                               # define biological timesteps (1000s)

run 320                                                    # growing biofilm for 900x1000s
Generated 0 of 6 mixed pair_coeff terms from geometric mixing rule
Last active /omp style is pair_style gran/hooke/history/omp
Neighbor list info ...
  update every 1 steps, delay 10 steps, check yes
  max neighbors/atom: 2000, page size: 100000
  master list distance cutoff = 2.49e-06
  ghost atom cutoff = 2.49e-06
  binsize = 1.245e-06, bins = 49 49 49
  1 neighbor lists, perpetual/occasional/extra = 1 0 0
  (1) pair gran/hooke/history/omp, perpetual
      attributes: half, newton off, size, history, omp
      pair build: half/size/bin/newtoff/omp
      stencil: full/bin/3d
      bin: standard
Per MPI rank memory allocation (min/avg/max) = 11.02 | 11.02 | 11.02 Mbytes
   Step          CPU          Atoms      v_ncross1      v_ncross2      v_ncheater      v_ndead         v_mass    
         0   0                    150   50             50             50             0              1.3295396e-13
         1   0.39689763           273   96             91             86             0              1.9616795e-13
         2   0.77379625           434   149            150            135            0              2.2354736e-13
         3   1.0884324            539   168            199            172            0              2.4481359e-13
         4   1.3775635            581   179            212            190            0              2.6373571e-13
         5   1.5678549            621   196            224            201            0              2.8111461e-13
         6   1.7374351            657   211            234            212            0              2.976258e-13 
         7   1.8899375            694   222            246            226            0              3.1350369e-13
         8   2.0144757            740   236            265            239            0              3.2841796e-13
         9   2.1577488            773   245            274            254            0              3.4252004e-13
        10   2.2830665            803   252            285            266            0              3.5603998e-13
        11   2.3837799            836   258            301            277            0              3.6870663e-13
        12   2.4823709            876   264            312            300            0              3.8083071e-13
        13   2.5710339            903   270            319            314            0              3.9241747e-13
        14   2.6511466            925   278            322            325            0              4.0348485e-13
        15   2.7298592            952   283            332            337            0              4.1400548e-13
        16   2.8203048            974   287            335            352            0              4.2410503e-13
        17   2.8870564            999   294            339            366            0              4.335876e-13 
        18   2.9546135           1026   303            344            379            0              4.4245923e-13
        19   3.0232639           1045   308            349            388            0              4.5092703e-13
        20   3.0991368           1068   310            354            404            0              4.5901016e-13
        21   3.2019745           1089   314            359            416            0              4.6649653e-13
        22   3.2702995           1113   316            360            437            0              4.734147e-13 
        23   3.3234576           1131   320            367            444            0              4.7983214e-13
        24   3.3647152           1155   329            371            455            0              4.8586323e-13
        25   3.4178725           1169   333            375            461            0              4.9156972e-13
        26   3.4968343           1189   339            377            473            0              4.9699574e-13
        27   3.5587686           1207   344            379            484            0              5.0210717e-13
        28   3.6129816           1221   348            383            490            0              5.0693399e-13
        29   3.6886754           1236   351            387            498            0              5.1146502e-13
        30   3.7518629           1251   352            391            508            0              5.1583052e-13
        31   3.8096068           1270   355            395            520            0              5.1979562e-13
        32   3.8575705           1279   357            396            526            0              5.2354786e-13
        33   3.9056237           1295   362            399            534            0              5.2705087e-13
        34   3.9525585           1305   365            401            539            0              5.3037831e-13
        35   4.0074519           1322   370            405            547            0              5.3358247e-13
        36   4.0556395           1329   372            406            551            0              5.3661447e-13
        37   4.102344            1346   374            410            562            0              5.3950626e-13
        38   4.156343            1362   375            410            577            0              5.4226928e-13
        39   4.2038579           1369   376            410            583            0              5.4499846e-13
        40   4.2647547           1376   377            412            587            0              5.4761051e-13
        41   4.311427            1388   379            416            593            0              5.5011395e-13
        42   4.3558263           1395   382            417            596            0              5.5250408e-13
        43   4.3990216           1402   383            418            601            0              5.5480555e-13
        44   4.4473817           1417   387            422            608            0              5.5700981e-13
        45   4.5065711           1431   388            424            619            0              5.59186e-13  
        46   4.5625636           1439   389            424            626            0              5.6129547e-13
        47   4.6118607           1444   390            424            630            0              5.6341978e-13
        48   4.6629403           1458   393            426            639            0              5.6538611e-13
        49   4.7071397           1470   396            426            648            0              5.6731417e-13
        50   4.9383308           1479   401            426            652            0              5.692187e-13 
        51   5.0033595           1485   403            427            655            0              5.7109056e-13
        52   5.0678651           1497   404            427            666            0              5.7308146e-13
        53   5.1345496           1509   405            429            675            0              5.7508091e-13
        54   5.1853536           1521   405            430            686            0              5.7709747e-13
        55   5.2573154           1530   405            431            694            0              5.7918385e-13
        56   5.3749297           1542   405            432            702            3              5.8145721e-13
        57   5.463553            1551   406            432            710            3              5.840318e-13 
        58   5.5613494           1557   406            432            715            4              5.8669944e-13
        59   5.6582438           1576   408            432            731            5              5.8956683e-13
        60   5.8127397           1589   409            432            740            8              5.925555e-13 
        61   5.9300266           1601   409            432            750            10             5.9592607e-13
        62   6.0308344           1613   410            432            754            17             5.995323e-13 
        63   6.1821537           1632   411            434            762            25             6.0328113e-13
        64   6.32169             1651   411            434            771            35             6.0757334e-13
        65   6.4847021           1664   411            435            774            44             6.1202049e-13
        66   6.6269141           1681   412            435            785            49             6.1683092e-13
        67   6.7994969           1704   413            436            795            60             6.2195057e-13
        68   6.9721147           1720   413            436            801            70             6.2748405e-13
        69   7.1523051           1742   413            436            818            75             6.333515e-13 
        70   7.3237393           1756   413            436            821            86             6.3961316e-13
        71   7.4508516           1781   414            436            840            91             6.4609255e-13
        72   7.6008808           1803   415            437            851            100            6.5260706e-13
        73   7.777858            1828   416            437            871            104            6.5929691e-13
        74   7.9391194           1857   416            437            896            108            6.6633357e-13
        75   8.0860928           1878   416            437            912            113            6.7350365e-13
        76   8.2182864           1902   418            437            927            120            6.8076592e-13
        77   8.3338029           1935   418            438            952            127            6.880466e-13 
        78   8.4578771           1960   418            440            966            136            6.9530079e-13
        79   8.5929627           1994   418            440            996            140            7.0249952e-13
        80   8.7247413           2021   418            440            1014           149            7.0970948e-13
        81   8.8342489           2042   418            440            1029           155            7.1685783e-13
        82   8.9302576           2075   418            440            1056           161            7.2392439e-13
        83   9.0877051           2100   418            440            1080           162            7.3083717e-13
        84   9.2644599           2121   419            440            1096           166            7.3822305e-13
        85   9.453368            2147   419            440            1119           169            7.458664e-13 
        86   9.6332887           2169   420            440            1136           173            7.5382025e-13
        87   9.7925862           2202   421            440            1163           178            7.6205543e-13
        88   9.9830906           2239   421            440            1193           185            7.7046062e-13
        89   10.23604            2269   422            440            1218           189            7.7924599e-13
        90   43.906586           2294   423            440            1240           191            7.8895898e-13
        91   44.169495           2331   423            440            1269           199            7.9943565e-13
        92   44.442096           2379   423            440            1313           203            8.1066558e-13
        93   44.704039           2413   423            440            1342           208            8.2243209e-13
        94   44.94763            2465   423            440            1389           213            8.3474829e-13
        95   45.181987           2521   423            440            1441           217            8.4727251e-13
        96   45.388713           2564   423            440            1482           219            8.6003563e-13
        97   45.594294           2613   423            440            1530           220            8.7269115e-13
        98   45.765724           2660   423            440            1573           224            8.8523847e-13
        99   45.934296           2700   423            440            1607           230            8.9744257e-13
       100   46.097715           2746   423            440            1648           235            9.0932952e-13
       101   46.240457           2799   423            440            1698           238            9.2080422e-13
       102   46.389451           2853   423            440            1746           244            9.3186972e-13
       103   46.52247            2893   423            440            1778           252            9.4269029e-13
       104   46.656702           2937   423            440            1819           255            9.5303679e-13
       105   46.779144           2974   423            440            1850           261            9.6303895e-13
       106   46.938753           3016   423            440            1887           266            9.7257242e-13
       107   47.183541           3045   423            440            1910           272            9.8214894e-13
       108   47.427959           3092   423            440            1952           277            9.9240643e-13
       109   47.71739            3136   423            440            1993           280            1.0028421e-12
       110   48.057564           3189   423            440            2045           281            1.0138982e-12
       111   48.396497           3235   423            440            2080           292            1.0258255e-12
       112   48.76006            3284   423            440            2126           295            1.0385772e-12
       113   49.092214           3342   423            440            2180           299            1.0523696e-12
       114   49.443377           3398   423            440            2226           309            1.0667529e-12
       115   49.780104           3463   423            440            2284           316            1.081826e-12 
       116   50.091371           3532   423            440            2348           321            1.0975027e-12
       117   50.373161           3586   423            440            2396           327            1.1131863e-12
       118   50.657785           3664   423            440            2470           331            1.1289282e-12
       119   50.939735           3721   423            440            2520           338            1.1445258e-12
       120   51.27193            3794   423            440            2591           340            1.1600828e-12
       121   51.526535           3855   423            439            2645           348            1.1757205e-12
       122   51.759651           3924   422            439            2707           356            1.1909489e-12
       123   52.025246           3998   422            439            2767           370            1.2058574e-12
       124   52.285516           4055   421            439            2817           378            1.2208534e-12
       125   52.52553            4145   421            437            2902           385            1.2356741e-12
       126   52.826301           4210   421            437            2957           395            1.2502119e-12
       127   53.161252           4286   421            435            3027           403            1.2653499e-12
       128   53.507014           4353   421            433            3085           414            1.2809739e-12
       129   53.874769           4417   421            431            3141           424            1.2968031e-12
       130   54.265616           4505   421            431            3223           430            1.3135961e-12
       131   54.648642           4577   421            429            3287           440            1.3308211e-12
       132   55.031324           4661   421            428            3364           448            1.3491633e-12
       133   55.418442           4743   421            427            3442           453            1.3682573e-12
       134   55.799328           4830   421            426            3526           457            1.3880016e-12
       135   56.17231            4920   417            426            3610           467            1.4081028e-12
       136   56.504635           5022   416            425            3708           473            1.428402e-12 
       137   56.829052           5112   416            423            3794           479            1.4484639e-12
       138   57.14548            5213   415            422            3891           485            1.4680951e-12
       139   57.452232           5311   415            422            3980           494            1.4873646e-12
       140   57.769815           5415   415            422            4078           500            1.5062454e-12
       141   58.059281           5505   415            422            4162           506            1.524624e-12 
       142   58.380011           5597   415            419            4249           514            1.5425122e-12
       143   58.704674           5688   415            419            4328           526            1.5602959e-12
       144   59.065361           5787   415            419            4423           530            1.5779984e-12
       145   59.455094           5886   415            419            4514           538            1.595993e-12 
       146   59.850543           5988   415            419            4603           551            1.6143929e-12
       147   60.25318            6070   415            419            4673           563            1.633591e-12 
       148   60.649287           6180   415            419            4770           576            1.65354e-12  
       149   61.048842           6274   415            418            4850           591            1.6741231e-12
       150   61.475456           6377   415            415            4939           608            1.6954111e-12
       151   61.877187           6478   415            415            5031           617            1.7169337e-12
       152   62.282282           6570   415            414            5112           629            1.7385784e-12
       153   62.674804           6687   415            414            5213           645            1.7603621e-12
       154   63.03866            6793   415            414            5297           667            1.7819648e-12
       155   63.400435           6893   415            412            5375           691            1.8033166e-12
       156   63.766761           7012   415            412            5480           705            1.8242737e-12
       157   64.117023           7121   415            411            5569           726            1.8449579e-12
       158   64.536827           7222   415            410            5637           760            1.8650803e-12
       159   64.925235           7352   414            410            5738           790            1.8857761e-12
       160   65.378448           7460   414            409            5818           819            1.9061018e-12
       161   65.805835           7567   413            407            5887           860            1.9267792e-12
       162   66.261165           7687   413            407            5974           893            1.9482118e-12
       163   66.687965           7801   413            406            6051           931            1.9701281e-12
       164   67.111444           7922   413            405            6139           965            1.9931017e-12
       165   67.527818           8047   413            405            6234           995            2.0171504e-12
       166   67.959393           8195   413            402            6347           1033           2.0414219e-12
       167   68.378076           8337   413            401            6451           1072           2.0662408e-12
       168   68.783839           8462   413            399            6535           1115           2.0913687e-12
       169   69.198904           8588   413            399            6622           1154           2.116489e-12 
       170   70.10819            8724   413            398            6707           1206           2.1415388e-12
       171   70.596712           8859   412            397            6795           1255           2.1661452e-12
       172   71.017911           8984   412            397            6868           1307           2.1905497e-12
       173   71.481565           9112   412            395            6934           1371           2.2147174e-12
       174   71.935624           9245   412            395            7024           1414           2.2390313e-12
       175   72.384757           9385   412            394            7107           1472           2.2644473e-12
       176   72.836481           9528   412            391            7198           1527           2.2901264e-12
       177   73.290724           9658   412            389            7271           1586           2.316808e-12 
       178   73.749559           9828   411            388            7399           1630           2.3449078e-12
       179   74.218976           9970   409            387            7489           1685           2.3747013e-12
       180   75.056321          10153   409            387            7626           1731           2.405588e-12 
       181   75.504635          10285   409            387            7717           1772           2.4370367e-12
       182   75.954348          10448   409            385            7828           1826           2.4688444e-12
       183   76.475522          10605   409            385            7937           1874           2.5004444e-12
       184   76.941871          10763   408            385            8043           1927           2.5318816e-12
       185   77.426698          10910   407            383            8125           1995           2.5628182e-12
       186   77.900412          11087   407            377            8232           2071           2.5937765e-12
       187   78.406202          11243   407            376            8332           2128           2.6242663e-12
       188   78.901842          11392   407            375            8406           2204           2.6550908e-12
       189   79.409892          11551   407            374            8491           2279           2.6869037e-12
       190   80.00322           11733   406            373            8598           2356           2.7201521e-12
       191   80.506827          11914   406            371            8706           2431           2.7547211e-12
       192   81.020295          12084   405            369            8806           2504           2.7903205e-12
       193   81.534309          12278   403            368            8914           2593           2.8275243e-12
       194   82.042388          12465   403            367            9041           2654           2.8662313e-12
       195   82.556626          12653   402            365            9146           2740           2.9058798e-12
       196   83.050144          12816   402            365            9254           2795           2.9461479e-12
       197   83.566634          13022   402            364            9397           2859           2.9868527e-12
       198   84.096594          13217   402            362            9539           2914           3.027611e-12 
       199   84.610894          13406   401            361            9666           2978           3.068691e-12 
       200   85.204123          13598   401            361            9806           3030           3.1090503e-12
       201   85.776024          13812   399            360            9949           3104           3.1501175e-12
       202   86.396725          14031   398            360            10119          3154           3.1927139e-12
       203   86.957102          14244   398            358            10273          3215           3.2375416e-12
       204   87.552839          14471   397            353            10448          3273           3.2841915e-12
       205   88.096368          14699   397            352            10618          3332           3.3326977e-12
       206   88.682326          14937   397            351            10789          3400           3.3831899e-12
       207   89.275338          15178   396            350            10970          3462           3.4361931e-12
       208   89.879672          15430   396            347            11165          3522           3.4907956e-12
       209   90.512447          15672   395            347            11350          3580           3.5463243e-12
       210   91.19993           15929   394            347            11535          3653           3.6031008e-12
       211   91.894227          16190   393            347            11746          3704           3.6616459e-12
       212   92.577187          16464   393            342            11958          3771           3.7219977e-12
       213   93.276858          16747   393            341            12189          3824           3.7850108e-12
       214   93.99706           17019   393            341            12407          3878           3.8505611e-12
       215   94.758786          17355   391            340            12677          3947           3.9193211e-12
       216   95.520137          17663   390            339            12927          4007           3.9926927e-12
       217   96.322935          17980   388            336            13176          4080           4.0689147e-12
       218   97.127806          18301   386            329            13411          4175           4.1493063e-12
       219   97.971022          18664   384            325            13699          4256           4.2339387e-12
       220   98.907106          19028   383            323            13974          4348           4.3225916e-12
       221   99.8132            19383   383            323            14247          4430           4.4158605e-12
       222   100.74606          19804   383            319            14575          4527           4.5159131e-12
       223   101.7573           20235   381            317            14928          4609           4.6218383e-12
       224   102.78566          20669   380            315            15286          4688           4.7355907e-12
       225   103.92332          21130   380            313            15659          4778           4.8601251e-12
       226   105.1341           21652   378            312            16080          4882           4.9976087e-12
       227   106.49341          22187   377            308            16505          4997           5.150668e-12 
       228   107.9815           22777   374            308            16998          5097           5.3197636e-12
       229   109.6036           23405   373            304            17504          5224           5.4976834e-12
       230   111.35205          24071   372            300            18054          5345           5.6818956e-12
       231   113.40034          24741   368            299            18603          5471           5.8746531e-12
       232   115.57379          25406   368            298            19125          5615           6.0723937e-12
       233   117.77822          26080   362            295            19683          5740           6.2704339e-12
       234   120.06168          26806   362            293            20248          5903           6.462967e-12 
       235   122.37421          27533   362            288            20838          6045           6.6661959e-12
       236   124.73512          28272   353            283            21460          6176           6.883989e-12 
       237   127.14508          29024   353            279            22100          6292           7.0805494e-12
       238   129.59721          29745   351            277            22703          6414           7.2833294e-12
       239   132.09066          30516   348            275            23345          6548           7.4840367e-12
       240   134.67469          31280   344            273            23972          6691           7.6867654e-12
       241   137.25272          32043   336            272            24606          6829           7.8805005e-12
       242   139.80342          32804   331            267            25218          6988           8.0828216e-12
       243   142.39774          33630   320            264            25917          7129           8.290801e-12 
       244   144.97377          34489   315            253            26627          7294           8.518561e-12 
       245   147.57464          35251   310            247            27248          7446           8.7153665e-12
       246   150.21317          36114   302            241            27939          7632           8.9088372e-12
       247   152.87537          36928   295            233            28613          7787           9.0931296e-12
       248   155.53981          37771   287            223            29325          7936           9.3047808e-12
       249   158.23102          38624   270            215            30015          8124           9.492793e-12 
       250   161.03935          39419   255            204            30649          8311           9.6731736e-12
       251   163.7687           40249   238            197            31253          8561           9.8404385e-12
       252   166.43729          41074   223            189            31850          8812           1.0028559e-11
       253   169.17261          41849   212            178            32405          9054           1.0204246e-11
       254   171.90829          42630   193            163            32968          9306           1.0366439e-11
       255   174.67609          43444   175            150            33515          9604           1.0525056e-11
       256   177.42607          44229   164            142            34060          9863           1.0675663e-11
       257   180.19976          45003   154            129            34599          10121          1.0813855e-11
       258   183.00087          45752   144            111            35100          10397          1.0958132e-11
       259   185.81822          46458   124            102            35512          10720          1.1081875e-11
       260   188.79682          47254   108            89             35986          11071          1.1222774e-11
       261   191.66523          47980   88             77             36359          11456          1.1366113e-11
       262   194.57071          48732   68             59             36784          11821          1.1460961e-11
       263   197.53669          49460   56             47             37144          12213          1.1590185e-11
       264   200.46112          50131   39             40             37471          12581          1.1689169e-11
       265   203.41918          50739   31             27             37665          13016          1.1757445e-11
       266   206.38739          51355   24             24             37901          13406          1.1836601e-11
       267   209.40136          52033   18             19             38153          13843          1.1901147e-11
       268   212.43799          52617   14             10             38284          14309          1.1958148e-11
       269   215.47913          53171   9              9              38390          14763          1.2014575e-11
       270   218.66609          53747   8              5              38528          15206          1.205134e-11 
       271   221.79768          54223   5              4              38594          15620          1.2057842e-11
       272   224.93111          54775   1              3              38747          16024          1.2113963e-11
       273   228.10377          55221   0              2              38796          16423          1.2115295e-11
       274   231.28794          55722   0              0              38914          16808          1.2129229e-11
       275   234.51786          56207   0              0              39055          17152          1.2145982e-11
       276   237.75855          56640   0              0              39151          17489          1.2133795e-11
       277   241.02613          57055   0              0              39286          17769          1.2132499e-11
       278   244.32414          57496   0              0              39462          18034          1.2130465e-11
       279   247.63686          57934   0              0              39659          18275          1.2115417e-11
       280   251.11551          58243   0              0              39717          18526          1.2079959e-11
       281   254.45383          58758   0              0              39957          18801          1.2109297e-11
       282   257.86859          59128   0              0              40042          19086          1.2082016e-11
       283   261.32298          59519   0              0              40129          19390          1.2066946e-11
       284   264.79962          59990   0              0              40276          19714          1.2070519e-11
       285   268.30432          60350   0              0              40360          19990          1.2051969e-11
       286   271.84289          60705   0              0              40418          20287          1.2051514e-11
       287   275.42397          61129   0              0              40503          20626          1.2047539e-11
       288   278.9989           61566   0              0              40609          20957          1.2051673e-11
       289   282.59008          61940   0              0              40647          21293          1.2032488e-11
       290   286.4001           62330   0              0              40718          21612          1.2017557e-11
       291   290.07497          62623   0              0              40705          21918          1.197965e-11 
       292   293.7795           62990   0              0              40714          22276          1.199413e-11 
       293   297.55887          63434   0              0              40822          22612          1.1999274e-11
       294   301.3805           63777   0              0              40830          22947          1.1986956e-11
       295   305.22573          64183   0              0              40884          23299          1.1975631e-11
       296   309.06733          64568   0              0              40899          23669          1.1989519e-11
       297   312.93614          64906   0              0              40877          24029          1.196472e-11 
       298   316.85185          65222   0              0              40844          24378          1.1953297e-11
       299   320.83017          65536   0              0              40802          24734          1.1945523e-11
       300   324.97967          65932   0              0              40846          25086          1.1943679e-11
       301   329.01458          66248   0              0              40784          25464          1.1903199e-11
       302   333.06144          66664   0              0              40841          25823          1.1923625e-11
       303   337.19021          66978   0              0              40780          26198          1.1927976e-11
       304   341.33326          67363   0              0              40785          26578          1.1934668e-11
       305   345.52001          67687   0              0              40726          26961          1.1915737e-11
       306   349.71674          68054   0              0              40704          27350          1.1931789e-11
       307   353.96502          68466   0              0              40728          27738          1.1928897e-11
       308   358.26327          68741   0              0              40581          28160          1.1893418e-11
       309   362.61474          69060   0              0              40505          28555          1.1895391e-11
       310   367.16448          69338   0              0              40338          29000          1.1881578e-11
       311   371.62442          69718   0              0              40281          29437          1.1881539e-11
       312   376.07734          70095   0              0              40272          29823          1.1893423e-11
       313   380.60959          70357   0              0              40103          30254          1.1880179e-11
       314   385.10913          70754   0              0              40068          30686          1.1908416e-11
       315   389.66897          71061   0              0              39955          31106          1.1899877e-11
       316   394.14857          71459   0              0              39931          31528          1.1930604e-11
       317   398.58492          71794   0              0              39822          31972          1.1933862e-11
       318   403.2487           72051   0              0              39611          32440          1.192765e-11 
       319   407.92516          72371   0              0              39491          32880          1.191186e-11 
       320   412.72547          72757   0              0              39424          33333          1.1936953e-11
Loop time of 412.726 on 16 procs for 320 steps with 72757 atoms

92.8% CPU use with 16 MPI tasks x 1 OpenMP threads

MPI task timing breakdown:
Section |  min time  |  avg time  |  max time  |%varavg| %total
---------------------------------------------------------------
Pair    | 47.835     | 79.001     | 123.41     | 241.5 | 19.14
Neigh   | 7.0284     | 19.339     | 50.973     | 275.2 |  4.69
Comm    | 53.662     | 72.135     | 86.672     | 134.8 | 17.48
Output  | 36.243     | 36.243     | 36.243     |   0.0 |  8.78
Modify  | 113.52     | 186.79     | 244.93     | 281.2 | 45.26
Other   |            | 19.22      |            |       |  4.66

Nlocal:        4547.31 ave        9630 max        2716 min
Histogram: 7 2 0 2 1 3 0 0 0 1
Nghost:        3539.94 ave        5073 max        2202 min
Histogram: 2 5 1 0 1 0 1 2 0 4
Neighs:        28050.5 ave       38056 max       21486 min
Histogram: 2 4 3 0 1 1 2 2 0 1

Total # of neighbors = 448808
Ave neighs/atom = 6.1685886
Neighbor list builds = 3437
Dangerous builds = 326

Total wall time: 0:06:53
