NUFEB Simulation

     100 atoms
     2 atom types

  0.0e+00   1.00e-04  xlo xhi
  0.0e+00   1.00e-04  ylo yhi
  0.0e+00   1.00e-04  zlo zhi

Atoms

1 1 1.25e-06 500 2.26e-05 1.72e-05 1.25e-06 1.25e-06
2 1 1.65e-06 500 5.29e-05 9.03e-05 1.65e-06 1.65e-06
3 1 1.09e-06 500 3.88e-05 9.44e-05 1.09e-06 1.09e-06
4 1 1.70e-06 500 1.73e-05 6.90e-05 1.70e-06 1.70e-06
5 1 1.10e-06 500 1.03e-05 4.01e-06 1.10e-06 1.10e-06
6 1 1.49e-06 500 3.36e-05 6.43e-05 1.49e-06 1.49e-06
7 1 1.26e-06 500 9.80e-05 2.66e-05 1.26e-06 1.26e-06
8 1 1.56e-06 500 2.81e-05 4.73e-05 1.56e-06 1.56e-06
9 1 1.62e-06 500 7.98e-05 5.39e-05 1.62e-06 1.62e-06
10 1 1.97e-06 500 1.54e-05 5.99e-05 1.97e-06 1.97e-06
11 1 1.29e-06 500 7.33e-05 3.12e-05 1.29e-06 1.29e-06
12 1 1.74e-06 500 9.17e-05 9.31e-05 1.74e-06 1.74e-06
13 1 1.24e-06 500 2.05e-05 3.58e-05 1.24e-06 1.24e-06
14 1 1.43e-06 500 8.14e-05 6.59e-05 1.43e-06 1.43e-06
15 1 1.18e-06 500 1.86e-05 7.55e-05 1.18e-06 1.18e-06
16 1 1.59e-06 500 9.54e-05 5.57e-05 1.59e-06 1.59e-06
17 1 1.29e-06 500 4.33e-05 3.50e-05 1.29e-06 1.29e-06
18 1 1.35e-06 500 2.33e-05 5.33e-05 1.35e-06 1.35e-06
19 1 1.01e-06 500 3.44e-05 1.65e-05 1.01e-06 1.01e-06
20 1 1.26e-06 500 6.92e-06 9.23e-05 1.26e-06 1.26e-06
21 1 1.69e-06 500 6.02e-05 3.73e-05 1.69e-06 1.69e-06
22 1 1.15e-06 500 3.85e-06 1.57e-05 1.15e-06 1.15e-06
23 1 1.69e-06 500 9.82e-05 8.07e-05 1.69e-06 1.69e-06
24 1 1.47e-06 500 2.10e-05 9.83e-05 1.47e-06 1.47e-06
25 1 1.85e-06 500 5.61e-06 7.39e-05 1.85e-06 1.85e-06
26 1 1.74e-06 500 2.83e-06 6.04e-05 1.74e-06 1.74e-06
27 1 1.21e-06 500 2.31e-06 7.62e-05 1.21e-06 1.21e-06
28 1 1.04e-06 500 2.69e-05 1.43e-05 1.04e-06 1.04e-06
29 1 1.81e-06 500 3.43e-05 2.69e-05 1.81e-06 1.81e-06
30 1 1.70e-06 500 7.39e-05 1.58e-05 1.70e-06 1.70e-06
31 1 1.24e-06 500 3.71e-05 5.06e-05 1.24e-06 1.24e-06
32 1 1.27e-06 500 2.66e-05 5.78e-05 1.27e-06 1.27e-06
33 1 1.07e-06 500 6.84e-06 6.27e-05 1.07e-06 1.07e-06
34 1 1.79e-06 500 3.02e-05 8.79e-05 1.79e-06 1.79e-06
35 1 1.15e-06 500 7.31e-05 7.87e-05 1.15e-06 1.15e-06
36 1 1.15e-06 500 9.77e-05 3.33e-05 1.15e-06 1.15e-06
37 1 1.38e-06 500 7.03e-05 3.25e-05 1.38e-06 1.38e-06
38 1 1.42e-06 500 8.20e-05 7.06e-05 1.42e-06 1.42e-06
39 1 1.72e-06 500 9.65e-05 6.03e-05 1.72e-06 1.72e-06
40 1 1.25e-06 500 8.22e-05 6.58e-05 1.25e-06 1.25e-06
41 1 1.35e-06 500 8.99e-05 2.34e-05 1.35e-06 1.35e-06
42 1 1.00e-06 500 7.43e-05 1.29e-06 1.00e-06 1.00e-06
43 1 1.36e-06 500 8.97e-05 9.43e-05 1.36e-06 1.36e-06
44 1 1.32e-06 500 1.14e-05 9.56e-05 1.32e-06 1.32e-06
45 1 1.90e-06 500 2.18e-05 7.15e-05 1.90e-06 1.90e-06
46 1 1.21e-06 500 7.62e-05 7.84e-05 1.21e-06 1.21e-06
47 1 1.20e-06 500 5.16e-05 6.35e-06 1.20e-06 1.20e-06
48 1 1.55e-06 500 7.60e-05 2.60e-05 1.55e-06 1.55e-06
49 1 1.16e-06 500 9.58e-06 4.17e-05 1.16e-06 1.16e-06
50 1 1.22e-06 500 8.35e-05 4.86e-05 1.22e-06 1.22e-06
51 1 1.92e-06 500 9.25e-05 8.10e-05 1.92e-06 1.92e-06
52 1 1.63e-06 500 5.00e-05 9.16e-05 1.63e-06 1.63e-06
53 1 1.38e-06 500 8.52e-05 5.69e-05 1.38e-06 1.38e-06
54 1 1.96e-06 500 6.42e-05 3.52e-06 1.96e-06 1.96e-06
55 1 1.36e-06 500 8.83e-05 8.91e-05 1.36e-06 1.36e-06
56 1 1.78e-06 500 4.44e-05 9.53e-05 1.78e-06 1.78e-06
57 1 1.10e-06 500 1.94e-05 7.32e-05 1.10e-06 1.10e-06
58 1 1.37e-06 500 3.30e-06 9.74e-05 1.37e-06 1.37e-06
59 1 2.00e-06 500 1.41e-05 2.78e-05 2.00e-06 2.00e-06
60 1 1.25e-06 500 8.65e-05 3.38e-05 1.25e-06 1.25e-06
61 1 1.46e-06 500 4.04e-05 5.73e-05 1.46e-06 1.46e-06
62 1 1.48e-06 500 6.93e-05 6.10e-05 1.48e-06 1.48e-06
63 1 1.38e-06 500 3.17e-05 9.56e-05 1.38e-06 1.38e-06
64 1 1.98e-06 500 3.55e-05 3.74e-05 1.98e-06 1.98e-06
65 1 1.21e-06 500 4.19e-05 2.03e-05 1.21e-06 1.21e-06
66 1 1.51e-06 500 4.53e-05 3.94e-05 1.51e-06 1.51e-06
67 1 1.19e-06 500 8.51e-05 9.77e-05 1.19e-06 1.19e-06
68 1 1.06e-06 500 9.10e-05 1.66e-05 1.06e-06 1.06e-06
69 1 1.80e-06 500 8.32e-05 8.99e-05 1.80e-06 1.80e-06
70 1 1.84e-06 500 6.66e-05 8.73e-05 1.84e-06 1.84e-06
71 1 1.15e-06 500 8.59e-05 3.36e-05 1.15e-06 1.15e-06
72 1 1.32e-06 500 3.57e-05 9.19e-05 1.32e-06 1.32e-06
73 1 1.29e-06 500 2.30e-05 9.28e-05 1.29e-06 1.29e-06
74 1 1.30e-06 500 7.58e-05 5.73e-05 1.30e-06 1.30e-06
75 1 1.86e-06 500 6.73e-05 4.86e-05 1.86e-06 1.86e-06
76 1 1.00e-06 500 4.37e-05 7.99e-05 1.00e-06 1.00e-06
77 1 1.57e-06 500 1.78e-05 4.45e-05 1.57e-06 1.57e-06
78 1 1.04e-06 500 4.80e-05 3.78e-05 1.04e-06 1.04e-06
79 1 1.06e-06 500 4.66e-05 4.31e-05 1.06e-06 1.06e-06
80 1 1.94e-06 500 8.77e-05 4.85e-05 1.94e-06 1.94e-06
81 1 1.31e-06 500 6.13e-06 6.45e-05 1.31e-06 1.31e-06
82 1 1.20e-06 500 3.78e-05 7.48e-05 1.20e-06 1.20e-06
83 1 1.98e-06 500 1.12e-05 2.11e-05 1.98e-06 1.98e-06
84 1 1.47e-06 500 6.86e-05 2.50e-06 1.47e-06 1.47e-06
85 1 1.95e-06 500 6.18e-05 2.66e-05 1.95e-06 1.95e-06
86 1 1.13e-06 500 4.24e-05 7.38e-05 1.13e-06 1.13e-06
87 1 1.10e-06 500 2.14e-05 5.93e-05 1.10e-06 1.10e-06
88 1 1.24e-06 500 2.98e-05 2.29e-05 1.24e-06 1.24e-06
89 1 1.49e-06 500 2.11e-05 7.34e-05 1.49e-06 1.49e-06
90 1 1.30e-06 500 2.16e-05 2.68e-05 1.30e-06 1.30e-06
91 1 1.18e-06 500 2.70e-05 8.95e-05 1.18e-06 1.18e-06
92 1 1.39e-06 500 1.59e-05 4.88e-05 1.39e-06 1.39e-06
93 1 1.28e-06 500 6.21e-05 8.41e-05 1.28e-06 1.28e-06
94 1 1.13e-06 500 7.25e-05 5.12e-05 1.13e-06 1.13e-06
95 1 1.66e-06 500 3.58e-05 6.33e-06 1.66e-06 1.66e-06
96 1 1.72e-06 500 5.39e-06 6.08e-05 1.72e-06 1.72e-06
97 1 1.68e-06 500 1.54e-05 4.80e-05 1.68e-06 1.68e-06
98 1 1.71e-06 500 8.48e-05 3.88e-05 1.71e-06 1.71e-06
99 1 1.25e-06 500 9.82e-05 3.14e-05 1.25e-06 1.25e-06
100 1 1.20e-06 500 4.74e-05 3.80e-05 1.20e-06 1.20e-06
