LAMMPS (23 Jun 2022 - Update 4)
  using 1 OpenMP thread(s) per MPI task
package omp 0
using multi-threaded neighbor list subroutines
#-----------------------------------------------------------------------------#
#                NUFEB Simulation: Heterotrophic Biofilm Growth               #
#-----------------------------------------------------------------------------#


#-----------------------------System Settings---------------------------------#

units si                                    # using si units (m, s, kg)
atom_style      coccus                      # using nufeb coccus atom style
atom_modify     map array sort 10 0         # map array - find atoms using indices
		                            # sort every 10

boundary        pp pp ff                    # periodic boundaries in x and y
                                            # fixed boundary in z

newton          off                         # forces between local and ghost
                                            # atoms are computed in each
					     # processor without communication

processors      * * 1                       # processor grid

comm_modify     vel yes                     # communicate velocities for ghost atoms

read_data       atom_ch.in	             # read atom.in file which defines domain size
Reading data file ...
  orthogonal box = (0 0 0) to (6e-05 6e-05 6e-05)
  4 by 4 by 1 MPI processor grid
  reading atoms ...
  150 atoms
  read_data CPU = 0.014 seconds
                                            # and initial atoms


#--------------------Microbes and Functional Groups-------------------------#

group           CROSS1   type 1               # assign type 1,2 atoms to CROSS group
50 atoms in group CROSS1
group           CROSS2   type 2
50 atoms in group CROSS2
group		CHEATER  type 3
50 atoms in group CHEATER
group           dead     type 4
0 atoms in group dead

neighbor        5e-7 bin                   # setting neighbour skin distance and style

neigh_modify    check yes                  # rebuild neighbour list if any atom
                                           # had moved more than half the skin distance


#--------------------------Mesh Grid and Substrates--------------------------#

# defining grid sytle, substrate names, and grid size
grid_style      nufeb/chemostat 3 sub metab1 metab2 5e-6

# set diffusion boundary conditions and initial concentrations (liquid:kg/m3)
grid_modify     set sub      pp pp nd  1.8e-4
No /omp style for force computation currently active
grid_modify     set metab1   pp pp nd  1e-4
No /omp style for force computation currently active
grid_modify     set metab2   pp pp nd  1e-4
No /omp style for force computation currently active


#--------------------------Biological Processes-------------------------------#

# heterotrophs growth
fix growth_cross1 CROSS1 nufeb/growth/cross1 sub 3.5e-5 metab2 4e-3 metab1 growth 0.009 yield 0.6 decay 2.6e-6 metab1_exp 20

fix growth_cross2 CROSS2 nufeb/growth/cross2 sub 3.5e-5 metab1 4e-3 metab2 growth 0.009 yield 0.6 decay 2.6e-6 metab2_exp 20

fix growth_cheater CHEATER nufeb/growth/cheater sub 3.5e-5 metab1 1e-3 metab2 1e-3 growth 0.009 yield 0.6 decay 2.6e-6
# heterotrophs division, division diameter: 1.36e-6
fix div1 CROSS1 nufeb/division/coccus 1.36e-6 544
fix div2 CROSS2 nufeb/division/coccus 1.36e-6 1870
fix div3 CHEATER nufeb/division/coccus 1.36e-6 4078

fix death1 CROSS1 nufeb/death/diameter dead 5.43e-7
fix death2 CROSS2 nufeb/death/diameter dead 5.43e-7
fix death3 CHEATER nufeb/death/diameter dead 5.43e-7

#---------------------------Physical Processes--------------------------------#

pair_style  gran/hooke/history 1e-4 NULL 1e-5 NULL 0.0 0    # pairwise interaction
pair_coeff  * *                                             # between atoms

# pairwise interaction between z-wall and atoms
fix wall all wall/gran hooke/history 1e-3 NULL 1e-4 NULL 0 0 zplane 0.0 1e-04

fix vis all viscous 1e-5                                    # viscous damping force

fix grav all gravity 9.81 vector 0.0 0.0 -1.0

fix nve all nve/limit 1e-7                                  # NVE integration with
                                                            # maximum distance limit


#---------------------------Post-Physical Processes---------------------------#

fix coeff_sub all nufeb/diffusion_coeff sub ratio 0.8       # defining diffusion coeff in the biofilm
fix coeff_metab1 all nufeb/diffusion_coeff metab1 ratio 0.8    # region is 80% of the value in liquid
fix coeff_metab2 all nufeb/diffusion_coeff metab2 ratio 0.8

#---------------------------Chemical Processes---------------------------------#

fix diff_sub all nufeb/diffusion_reaction sub 1e-9        # diffusion reaction for updating
fix diff_metab1 all nufeb/diffusion_reaction metab1 4e-9     # distribusion of substrate concentration
fix diff_metab2 all nufeb/diffusion_reaction metab2 4e-9

#--------------------------Computations and Outputs----------------------------#

variable mass equal "mass(all)"                             # total mass
variable ncross1 equal "count(CROSS1)"                      # total # of CROSS1
variable ncross2 equal "count(CROSS2)"                      # total # of CROSS2
variable ncheater equal "count(CHEATER)"
variable ndead equal "count(dead)"

shell mkdir vtk_NEPS_ch                                            # dump vtk files to /vtk folder
dump du1 all vtk 10 vtk_NEPS_ch/dump*.vtu id type diameter         # require build NUFEB with vtk option
dump du2 all grid/vtk 10 vtk_NEPS_ch/dump_%_*.vti con rea den gro

#dump du3 all movie 10 movie.avi type diameter view 80 60    # dump video
#dump_modify du3 acolor 1 blue acolor 2 lightgrey framerate 10


                                                            # dump hdf5 files to /hdf5 folder
#shell mkdir hdf5                                           # require build NUFEB with hdf5 option
#dump du3 all nufeb/hdf5 10 dump.h5 id type x y z vx vy vz fx fy fz radius conc reac

thermo_style custom step cpu atoms v_ncross1 v_ncross2 v_ncheater v_ndead v_mass     # screen and log outputs
thermo 1
thermo_modify   lost ignore

#-----------------------------------Run----------------------------------------#

# issue run command, define timesteps for physical (pairdt) and chemical (diffdt) processes
run_style nufeb diffdt 1e-4 difftol 1e-6 pairdt 1e-2 pairtol 1 pairmax 1000 diffmax 5000

timestep 12000                                               # define biological timesteps (1000s)

run 320                                                    # growing biofilm for 900x1000s
Generated 0 of 6 mixed pair_coeff terms from geometric mixing rule
Last active /omp style is pair_style gran/hooke/history/omp
Neighbor list info ...
  update every 1 steps, delay 10 steps, check yes
  max neighbors/atom: 2000, page size: 100000
  master list distance cutoff = 2.49e-06
  ghost atom cutoff = 2.49e-06
  binsize = 1.245e-06, bins = 49 49 49
  1 neighbor lists, perpetual/occasional/extra = 1 0 0
  (1) pair gran/hooke/history/omp, perpetual
      attributes: half, newton off, size, history, omp
      pair build: half/size/bin/newtoff/omp
      stencil: full/bin/3d
      bin: standard
Per MPI rank memory allocation (min/avg/max) = 11.02 | 11.02 | 11.02 Mbytes
   Step          CPU          Atoms      v_ncross1      v_ncross2      v_ncheater      v_ndead         v_mass    
         0   0                    150   50             50             50             0              1.3295396e-13
         1   0.38589934           273   96             91             86             0              1.9616795e-13
         2   0.76760549           434   150            148            136            0              2.2396729e-13
         3   1.0920177            533   167            190            176            0              2.4539484e-13
         4   1.3972265            575   179            204            192            0              2.6485708e-13
         5   1.5971156            619   190            225            204            0              2.8303833e-13
         6   1.7520146            669   203            243            223            0              3.0020818e-13
         7   1.8882388            706   211            257            238            0              3.1644184e-13
         8   2.011821             753   225            269            259            0              3.3194625e-13
         9   2.1456958            798   239            288            271            0              3.4655588e-13
        10   2.2809335            826   247            296            283            0              3.6051567e-13
        11   2.4012674            863   256            304            303            0              3.7374836e-13
        12   2.5085068            893   261            313            319            0              3.8640627e-13
        13   2.6004959            914   265            318            331            0              3.9842211e-13
        14   2.686972             942   271            324            347            0              4.0981185e-13
        15   2.8079736            974   278            330            366            0              4.2073838e-13
        16   2.8932794            991   281            332            378            0              4.3132994e-13
        17   2.9836025           1020   289            337            394            0              4.4120431e-13
        18   3.0645144           1047   295            343            409            0              4.507046e-13 
        19   3.1386491           1060   298            345            417            0              4.5977767e-13
        20   3.2470861           1092   301            351            440            0              4.6839881e-13
        21   3.3277072           1115   306            356            453            0              4.7652655e-13
        22   3.4032063           1137   307            360            470            0              4.8434502e-13
        23   3.4722077           1161   312            365            484            0              4.9179431e-13
        24   3.5410117           1177   316            369            492            0              4.9897224e-13
        25   3.6220946           1193   319            372            502            0              5.0587586e-13
        26   3.6817624           1216   324            374            518            0              5.1251256e-13
        27   3.7500133           1236   328            378            530            0              5.1892517e-13
        28   3.8321081           1259   328            381            550            0              5.2510131e-13
        29   3.9156242           1279   331            385            563            0              5.3112335e-13
        30   3.9840784           1295   334            388            573            0              5.3696061e-13
        31   4.0636335           1313   336            394            583            0              5.4250985e-13
        32   4.1482123           1327   336            396            595            0              5.4796206e-13
        33   4.2094654           1348   338            398            612            0              5.5329284e-13
        34   4.2950451           1366   343            401            622            0              5.5842458e-13
        35   4.3935066           1385   343            405            637            0              5.6352373e-13
        36   4.5035637           1401   345            409            647            0              5.6858376e-13
        37   4.6036287           1421   347            409            665            0              5.7367179e-13
        38   4.7182879           1430   348            411            671            0              5.7874309e-13
        39   4.8277116           1456   349            412            695            0              5.8387325e-13
        40   4.948487            1476   352            414            710            0              5.8907476e-13
        41   5.0609498           1498   354            416            728            0              5.9420342e-13
        42   5.1670228           1522   356            417            749            0              5.9935913e-13
        43   5.2641817           1534   356            417            761            0              6.0447783e-13
        44   5.3694738           1551   357            418            776            0              6.0967886e-13
        45   5.4768784           1575   358            420            797            0              6.1491544e-13
        46   5.5773446           1595   359            422            814            0              6.2017561e-13
        47   5.6880078           1613   360            423            830            0              6.2536414e-13
        48   5.7942875           1632   361            425            846            0              6.3055372e-13
        49   5.9152394           1651   362            425            864            0              6.3567502e-13
        50   6.0532245           1670   363            427            880            0              6.4099332e-13
        51   6.2043809           1696   363            429            904            0              6.4640683e-13
        52   6.3300555           1714   364            430            920            0              6.520769e-13 
        53   6.446353            1736   365            431            938            2              6.5783827e-13
        54   6.5802074           1756   366            431            956            3              6.6356627e-13
        55   6.7307564           1773   366            433            970            4              6.6950367e-13
        56   6.8722654           1793   366            433            989            5              6.7567886e-13
        57   7.0036189           1822   367            433            1017           5              6.8189811e-13
        58   7.0976056           1850   367            433            1040           10             6.8817845e-13
        59   7.2118988           1867   368            433            1052           14             6.9427964e-13
        60   26.728174           1893   368            433            1072           20             7.0039159e-13
        61   26.883721           1923   369            434            1098           22             7.0657609e-13
        62   27.027785           1949   371            434            1119           25             7.1306772e-13
        63   27.205914           1979   373            434            1134           38             7.1974539e-13
        64   27.392954           1999   373            435            1145           46             7.2677785e-13
        65   27.521033           2021   373            435            1160           53             7.3401035e-13
        66   27.723367           2048   374            435            1177           62             7.411797e-13 
        67   27.94487            2078   374            435            1199           70             7.4869725e-13
        68   28.158502           2116   374            436            1230           76             7.5668586e-13
        69   28.360255           2146   374            436            1250           86             7.6492613e-13
        70   28.584051           2170   374            436            1265           95             7.7335347e-13
        71   28.766277           2202   374            436            1284           108            7.8197015e-13
        72   28.938609           2242   374            436            1318           114            7.9061475e-13
        73   29.102008           2284   376            436            1349           123            7.9917228e-13
        74   29.251717           2314   376            436            1374           128            8.076602e-13 
        75   29.395115           2350   378            436            1403           133            8.1590431e-13
        76   29.522534           2389   378            437            1434           140            8.2397962e-13
        77   29.675053           2415   378            437            1454           146            8.3185547e-13
        78   29.809316           2454   378            437            1484           155            8.3963705e-13
        79   29.9478             2473   378            437            1499           159            8.4719133e-13
        80   30.115868           2508   378            437            1528           165            8.5451925e-13
        81   30.286209           2542   378            437            1555           172            8.6176195e-13
        82   30.466536           2575   378            437            1579           181            8.6914946e-13
        83   30.651565           2607   378            437            1607           185            8.7658687e-13
        84   30.844315           2639   378            437            1632           192            8.8411755e-13
        85   31.061582           2674   379            437            1665           193            8.9182031e-13
        86   31.32431            2704   379            437            1688           200            9.0001043e-13
        87   31.620677           2743   379            437            1719           208            9.0873265e-13
        88   31.901711           2780   380            437            1747           216            9.1823432e-13
        89   32.192758           2813   380            437            1773           223            9.2819007e-13
        90   32.472866           2860   380            437            1809           234            9.3867346e-13
        91   32.743324           2904   380            437            1845           242            9.4939514e-13
        92   33.015144           2962   380            437            1896           249            9.6041268e-13
        93   33.244485           3003   380            437            1927           259            9.7172378e-13
        94   33.467858           3056   380            437            1973           266            9.8285639e-13
        95   33.688383           3103   380            437            2011           275            9.940989e-13 
        96   33.89396            3152   380            437            2055           280            1.005138e-12 
        97   34.080886           3210   380            436            2106           288            1.0160711e-12
        98   34.314117           3251   380            435            2140           296            1.0268132e-12
        99   34.596337           3308   380            435            2189           304            1.0377335e-12
       100   34.902127           3351   380            435            2221           315            1.0491295e-12
       101   35.196047           3400   380            435            2263           322            1.0608677e-12
       102   35.540852           3456   380            435            2311           330            1.0729555e-12
       103   35.868939           3519   380            435            2363           341            1.085837e-12 
       104   36.22738            3578   380            435            2414           349            1.0993058e-12
       105   36.563951           3640   380            434            2468           358            1.1135313e-12
       106   36.883439           3699   381            434            2519           365            1.1282325e-12
       107   37.163894           3759   381            434            2571           373            1.1431992e-12
       108   37.452578           3831   379            433            2634           385            1.158008e-12 
       109   37.746477           3894   377            433            2690           394            1.1728222e-12
       110   38.043369           3964   377            432            2748           407            1.1875706e-12
       111   38.329062           4023   377            432            2798           416            1.2022952e-12
       112   38.667112           4092   377            432            2858           425            1.2168346e-12
       113   39.018023           4161   376            432            2923           430            1.2318228e-12
       114   39.387885           4224   376            432            2980           436            1.2472593e-12
       115   39.769502           4313   374            432            3065           442            1.2634087e-12
       116   40.148707           4378   373            431            3118           456            1.2804014e-12
       117   40.501965           4446   373            431            3183           459            1.2978574e-12
       118   40.868625           4524   371            430            3258           465            1.3153965e-12
       119   41.219084           4598   371            428            3329           470            1.3332671e-12
       120   41.59134            4682   371            428            3407           476            1.3509945e-12
       121   41.988223           4764   371            428            3486           479            1.3688812e-12
       122   42.356499           4847   371            427            3564           485            1.3870174e-12
       123   42.707518           4928   370            427            3638           493            1.4053707e-12
       124   43.107616           5027   369            425            3730           503            1.4239701e-12
       125   43.510258           5115   369            425            3814           507            1.4438156e-12
       126   43.913314           5210   368            425            3902           515            1.4644563e-12
       127   44.31451            5314   368            423            3995           528            1.4863624e-12
       128   44.719315           5418   368            423            4093           534            1.5093929e-12
       129   45.123314           5516   367            423            4184           542            1.5335017e-12
       130   45.54152            5641   367            422            4295           557            1.5577851e-12
       131   45.935832           5743   367            422            4387           567            1.5821535e-12
       132   46.306872           5860   367            422            4486           585            1.6063687e-12
       133   46.705048           5985   367            422            4597           599            1.6300537e-12
       134   47.083876           6089   367            422            4691           609            1.6536492e-12
       135   47.479972           6204   367            422            4793           622            1.6767925e-12
       136   47.896389           6320   366            422            4897           635            1.6997607e-12
       137   48.316867           6442   366            422            5007           647            1.7230633e-12
       138   48.737271           6553   366            422            5106           659            1.7465381e-12
       139   49.164357           6693   366            422            5231           674            1.7704257e-12
       140   49.621872           6813   366            422            5341           684            1.7951657e-12
       141   50.05032            6936   366            422            5456           692            1.8205893e-12
       142   50.493152           7069   366            422            5579           702            1.8466583e-12
       143   50.937955           7187   366            422            5685           714            1.8732052e-12
       144   51.378333           7322   366            422            5809           725            1.8998944e-12
       145   51.829627           7448   366            422            5921           739            1.9262738e-12
       146   52.277718           7573   366            422            6037           748            1.9528178e-12
       147   52.721609           7705   366            422            6157           760            1.9791961e-12
       148   53.196639           7828   366            422            6268           772            2.0050716e-12
       149   53.689311           7944   366            422            6356           800            2.0317834e-12
       150   54.254862           8084   366            422            6481           815            2.0583952e-12
       151   54.771499           8216   366            422            6596           832            2.0857843e-12
       152   55.279441           8363   366            421            6719           857            2.1150838e-12
       153   55.780169           8495   366            421            6823           885            2.1456536e-12
       154   56.254428           8661   366            421            6961           913            2.1772206e-12
       155   56.735228           8788   366            421            7053           948            2.2098539e-12
       156   57.208184           8934   366            421            7169           978            2.243053e-12 
       157   57.709567           9100   366            421            7292           1021           2.2767239e-12
       158   58.217673           9244   366            421            7384           1073           2.3105214e-12
       159   58.711002           9406   366            420            7500           1120           2.344625e-12 
       160   59.28102            9568   366            419            7615           1168           2.3795041e-12
       161   59.808537           9736   366            419            7732           1219           2.4158499e-12
       162   60.34174            9910   366            419            7847           1278           2.4536618e-12
       163   60.892649          10103   366            419            7976           1342           2.4938334e-12
       164   61.424432          10277   366            419            8081           1411           2.5363456e-12
       165   61.977388          10495   366            419            8239           1471           2.5807967e-12
       166   62.552104          10674   366            419            8347           1542           2.6269056e-12
       167   63.131136          10902   366            417            8512           1607           2.6737556e-12
       168   63.722293          11105   366            417            8643           1679           2.7206542e-12
       169   64.310427          11334   366            417            8791           1760           2.7682205e-12
       170   64.978091          11548   366            416            8924           1842           2.8175096e-12
       171   65.626904          11774   365            416            9086           1907           2.869354e-12 
       172   66.268349          11995   365            414            9227           1989           2.92411e-12  
       173   66.922195          12248   365            413            9403           2067           2.9828117e-12
       174   67.613789          12509   365            413            9550           2181           3.0448382e-12
       175   68.310341          12806   365            413            9753           2275           3.1101955e-12
       176   69.091927          13075   365            413            9927           2370           3.1775043e-12
       177   69.859211          13320   365            413            10088          2454           3.2473155e-12
       178   70.651707          13599   365            413            10278          2543           3.3191663e-12
       179   71.578265          13919   365            413            10485          2656           3.394994e-12 
       180   72.593228          14238   364            413            10710          2751           3.4788062e-12
       181   73.647686          14580   364            413            10972          2831           3.570132e-12 
       182   74.750573          14936   364            413            11249          2910           3.6699204e-12
       183   75.986601          15320   364            413            11557          2986           3.7789045e-12
       184   77.392657          15715   364            413            11890          3048           3.8968361e-12
       185   78.953827          16149   364            413            12245          3127           4.0207307e-12
       186   80.844113          16580   364            413            12606          3197           4.1534429e-12
       187   82.796731          17061   364            413            13021          3263           4.2891542e-12
       188   84.978285          17485   364            413            13375          3333           4.4165037e-12
       189   87.215919          17954   363            411            13769          3411           4.5446688e-12
       190   89.57297           18431   363            411            14169          3488           4.6736605e-12
       191   91.932114          18907   363            410            14571          3563           4.8163304e-12
       192   94.330179          19411   363            409            14996          3643           4.9534604e-12
       193   96.758973          19917   363            408            15429          3717           5.1055897e-12
       194   99.223046          20414   363            407            15865          3779           5.2492385e-12
       195   101.74093          20927   363            406            16310          3848           5.4001162e-12
       196   104.31704          21505   363            405            16810          3927           5.5506034e-12
       197   106.9283           22011   363            404            17218          4026           5.6967735e-12
       198   109.54534          22588   363            402            17699          4124           5.8597853e-12
       199   112.19108          23194   362            400            18207          4225           6.0345996e-12
       200   114.92044          23777   362            399            18694          4322           6.1992933e-12
       201   117.57872          24426   362            397            19253          4414           6.3820011e-12
       202   120.26838          25049   362            395            19785          4507           6.5435381e-12
       203   122.95967          25711   362            395            20359          4595           6.7185102e-12
       204   125.65662          26360   362            394            20889          4715           6.9007951e-12
       205   128.3527           27062   362            389            21488          4823           7.0985727e-12
       206   131.03229          27764   362            389            22082          4931           7.2946746e-12
       207   133.69243          28525   361            385            22747          5032           7.5153175e-12
       208   136.37316          29316   358            381            23415          5162           7.7141915e-12
       209   139.08107          30076   356            379            24063          5278           7.9278189e-12
       210   141.8606           30859   354            374            24658          5473           8.1423499e-12
       211   144.59626          31587   353            373            25218          5643           8.3345814e-12
       212   147.25865          32341   353            364            25841          5783           8.5248263e-12
       213   149.92153          33200   351            356            26552          5941           8.751906e-12 
       214   152.62897          34009   343            351            27166          6149           8.9620936e-12
       215   155.34369          34779   341            343            27757          6338           9.1656042e-12
       216   158.05864          35615   331            331            28356          6597           9.3782876e-12
       217   160.77429          36460   322            321            28984          6833           9.5846261e-12
       218   163.48813          37215   320            308            29511          7076           9.7672036e-12
       219   166.22757          37975   310            300            30025          7340           9.9375839e-12
       220   169.06205          38750   302            288            30565          7595           1.0130066e-11
       221   171.82716          39575   287            273            31136          7879           1.0305596e-11
       222   174.60655          40374   275            265            31694          8140           1.048753e-11 
       223   177.39411          41055   260            247            32138          8410           1.0649033e-11
       224   180.17699          41753   246            229            32600          8678           1.0755577e-11
       225   182.98061          42459   230            212            33051          8966           1.0874299e-11
       226   185.77647          43081   208            188            33397          9288           1.0998459e-11
       227   188.6225           43741   196            165            33802          9578           1.1102329e-11
       228   191.49801          44439   171            151            34248          9869           1.120792e-11 
       229   194.38371          45010   155            133            34591          10131          1.1279858e-11
       230   197.3852           45611   135            114            34964          10398          1.1355552e-11
       231   200.29616          46272   113            92             35438          10629          1.14484e-11  
       232   203.21237          46811   103            79             35777          10852          1.1496513e-11
       233   206.13506          47322   90             68             36098          11066          1.1557448e-11
       234   209.09978          47817   77             53             36422          11265          1.1595598e-11
       235   212.05949          48408   60             39             36851          11458          1.1641417e-11
       236   215.04056          48982   47             28             37280          11627          1.1704036e-11
       237   218.0731           49485   32             18             37619          11816          1.1731802e-11
       238   221.11745          49927   29             12             37878          12008          1.1745887e-11
       239   224.20402          50382   24             9              38122          12227          1.1773851e-11
       240   227.43332          50891   16             7              38404          12464          1.1791383e-11
       241   230.57608          51342   11             5              38632          12694          1.1812911e-11
       242   233.69342          51819   9              4              38801          13005          1.1810734e-11
       243   236.88372          52211   5              2              38886          13318          1.178661e-11 
       244   240.07978          52678   3              2              39039          13634          1.1829232e-11
       245   243.30745          53032   3              2              39051          13976          1.183584e-11 
       246   246.58625          53434   3              2              39127          14302          1.1805397e-11
       247   249.86575          53936   3              2              39283          14648          1.1813604e-11
       248   253.17617          54334   2              2              39357          14973          1.1821441e-11
       249   256.53679          54645   1              1              39333          15310          1.1795748e-11
       250   260.00989          55120   0              0              39444          15676          1.1811567e-11
       251   263.4348           55445   0              0              39425          16020          1.178022e-11 
       252   266.88099          55847   0              0              39515          16332          1.1769603e-11
       253   270.34317          56171   0              0              39501          16670          1.1741904e-11
       254   273.81158          56589   0              0              39625          16964          1.1746797e-11
       255   277.31591          56994   0              0              39752          17242          1.1757089e-11
       256   280.83746          57382   0              0              39853          17529          1.1754149e-11
       257   284.43911          57645   0              0              39853          17792          1.1716592e-11
       258   288.07978          58109   0              0              40061          18048          1.1736859e-11
       259   291.67412          58455   0              0              40111          18344          1.1713993e-11
       260   295.44853          58829   0              0              40193          18636          1.1721914e-11
       261   299.15368          59115   0              0              40187          18928          1.1706506e-11
       262   302.90928          59561   0              0              40337          19224          1.1721636e-11
       263   306.68834          59878   0              0              40400          19478          1.1698382e-11
       264   310.49909          60260   0              0              40520          19740          1.1701937e-11
       265   314.3758           60622   0              0              40565          20057          1.1700446e-11
       266   318.22705          60936   0              0              40554          20382          1.1692168e-11
       267   322.15237          61271   0              0              40547          20724          1.168319e-11 
       268   326.09616          61636   0              0              40587          21049          1.1681393e-11
       269   330.06071          61936   0              0              40507          21429          1.1670309e-11
       270   334.25757          62284   0              0              40523          21761          1.1651512e-11
       271   338.33146          62674   0              0              40587          22087          1.1680394e-11
       272   342.39333          62978   0              0              40554          22424          1.1671635e-11
       273   346.53241          63303   0              0              40490          22813          1.1653251e-11
       274   350.69447          63693   0              0              40494          23199          1.1665624e-11
       275   354.89791          64030   0              0              40450          23580          1.1667788e-11
       276   359.17559          64360   0              0              40363          23997          1.1664635e-11
       277   363.4736           64677   0              0              40241          24436          1.167958e-11 
       278   367.79284          65074   0              0              40196          24878          1.167673e-11 
       279   372.15247          65402   0              0              40040          25362          1.1665968e-11
       280   376.67041          65802   0              0              39986          25816          1.1693852e-11
       281   381.12337          66062   0              0              39815          26247          1.1676322e-11
       282   385.59392          66371   0              0              39658          26713          1.1680551e-11
       283   390.02124          66731   0              0              39561          27170          1.1680395e-11
       284   394.39304          67061   0              0              39397          27664          1.1707832e-11
       285   399.02373          67479   0              0              39338          28141          1.1703417e-11
       286   403.56331          67765   0              0              39126          28639          1.1717242e-11
       287   408.09667          68055   0              0              38976          29079          1.1722301e-11
       288   412.81632          68358   0              0              38797          29561          1.1711915e-11
       289   417.48468          68689   0              0              38630          30059          1.173146e-11 
       290   422.46887          69011   0              0              38458          30553          1.1720789e-11
       291   427.35071          69316   0              0              38315          31001          1.1716473e-11
       292   432.04399          69668   0              0              38219          31449          1.1742556e-11
       293   436.7543           69997   0              0              38068          31929          1.1765463e-11
       294   441.69853          70246   0              0              37853          32393          1.1749522e-11
       295   446.47513          70524   0              0              37684          32840          1.1764884e-11
       296   451.30547          70919   0              0              37642          33277          1.1786488e-11
       297   456.32955          71164   0              0              37438          33726          1.1758654e-11
       298   461.32861          71522   0              0              37365          34157          1.1766552e-11
       299   466.30845          71865   0              0              37302          34563          1.1825148e-11
       300   471.51988          72064   0              0              37060          35004          1.1798012e-11
       301   476.63218          72438   0              0              37046          35392          1.179833e-11 
       302   481.89924          72699   0              0              36893          35806          1.1796051e-11
       303   487.03345          73076   0              0              36842          36234          1.1828031e-11
       304   492.27334          73350   0              0              36727          36623          1.1825004e-11
       305   497.4613           73609   0              0              36583          37026          1.1842321e-11
       306   502.91304          73831   0              0              36437          37394          1.1807799e-11
       307   508.13342          74196   0              0              36445          37751          1.1848042e-11
       308   513.43217          74551   0              0              36389          38162          1.1883266e-11
       309   518.80161          74857   0              0              36336          38521          1.1879523e-11
       310   524.44247          75083   0              0              36209          38874          1.1868322e-11
       311   529.83997          75421   0              0              36208          39213          1.1876065e-11
       312   535.52677          75685   0              0              36110          39575          1.1860058e-11
       313   541.0328           75999   0              0              36035          39964          1.1892591e-11
       314   546.50099          76297   0              0              35988          40309          1.1908984e-11
       315   552.07193          76574   0              0              35920          40654          1.1923089e-11
       316   557.67828          76870   0              0              35871          40999          1.1920341e-11
       317   563.23892          77185   0              0              35880          41305          1.1942897e-11
       318   568.94364          77566   0              0              35963          41603          1.1970887e-11
       319   574.63263          77896   0              0              35960          41936          1.2003281e-11
       320   580.63501          78079   0              0              35835          42244          1.1982042e-11
Loop time of 580.635 on 16 procs for 320 steps with 78079 atoms

96.0% CPU use with 16 MPI tasks x 1 OpenMP threads

MPI task timing breakdown:
Section |  min time  |  avg time  |  max time  |%varavg| %total
---------------------------------------------------------------
Pair    | 106.93     | 141.02     | 212.27     | 258.7 | 24.29
Neigh   | 15.723     | 31.962     | 74.837     | 318.1 |  5.50
Comm    | 76.746     | 99.571     | 124.64     | 196.2 | 17.15
Output  | 21.72      | 21.72      | 21.72      |   0.0 |  3.74
Modify  | 134.49     | 262.51     | 329.83     | 365.5 | 45.21
Other   |            | 23.85      |            |       |  4.11

Nlocal:        4879.94 ave        9189 max        3441 min
Histogram: 9 2 0 1 2 0 0 0 0 2
Nghost:        3820.88 ave        6505 max        2733 min
Histogram: 8 2 0 2 0 0 2 0 1 1
Neighs:        37967.9 ave       49659 max       30613 min
Histogram: 2 2 4 2 2 0 2 0 0 2

Total # of neighbors = 607487
Ave neighs/atom = 7.7804147
Neighbor list builds = 4466
Dangerous builds = 388

Total wall time: 0:10:31
