LAMMPS (23 Jun 2022 - Update 4)
  using 1 OpenMP thread(s) per MPI task
package omp 0
using multi-threaded neighbor list subroutines
#-----------------------------------------------------------------------------#
#                NUFEB Simulation: Heterotrophic Biofilm Growth               #
#-----------------------------------------------------------------------------#


#-----------------------------System Settings---------------------------------#

units si                                    # using si units (m, s, kg)
atom_style      coccus                      # using nufeb coccus atom style
atom_modify     map array sort 10 0         # map array - find atoms using indices
		                            # sort every 10

boundary        pp pp ff                    # periodic boundaries in x and y
                                            # fixed boundary in z

newton          off                         # forces between local and ghost
                                            # atoms are computed in each
					     # processor without communication

processors      * * 1                       # processor grid

comm_modify     vel yes                     # communicate velocities for ghost atoms

read_data       atom_ch.in	             # read atom.in file which defines domain size
Reading data file ...
  orthogonal box = (0 0 0) to (6e-05 6e-05 6e-05)
  4 by 4 by 1 MPI processor grid
  reading atoms ...
  150 atoms
  read_data CPU = 0.022 seconds
                                            # and initial atoms


#--------------------Microbes and Functional Groups-------------------------#

group           CROSS1   type 1               # assign type 1,2 atoms to CROSS group
50 atoms in group CROSS1
group           CROSS2   type 2
50 atoms in group CROSS2
group		CHEATER  type 3
50 atoms in group CHEATER
group           dead     type 4
0 atoms in group dead

neighbor        5e-7 bin                   # setting neighbour skin distance and style

neigh_modify    check yes                  # rebuild neighbour list if any atom
                                           # had moved more than half the skin distance


#--------------------------Mesh Grid and Substrates--------------------------#

# defining grid sytle, substrate names, and grid size
grid_style      nufeb/chemostat 3 sub metab1 metab2 5e-6

# set diffusion boundary conditions and initial concentrations (liquid:kg/m3)
grid_modify     set sub      pp pp nd  1.8e-4
No /omp style for force computation currently active
grid_modify     set metab1   pp pp nd  1e-4
No /omp style for force computation currently active
grid_modify     set metab2   pp pp nd  1e-4
No /omp style for force computation currently active


#--------------------------Biological Processes-------------------------------#

# heterotrophs growth
fix growth_cross1 CROSS1 nufeb/growth/cross1 sub 3.5e-5 metab2 4e-3 metab1 growth 0.009 yield 0.6 decay 2.6e-6 metab1_exp 20

fix growth_cross2 CROSS2 nufeb/growth/cross2 sub 3.5e-5 metab1 4e-3 metab2 growth 0.009 yield 0.6 decay 2.6e-6 metab2_exp 20

fix growth_cheater CHEATER nufeb/growth/cheater sub 3.5e-5 metab1 1e-3 metab2 1e-3 growth 0.009 yield 0.6 decay 2.6e-6
# heterotrophs division, division diameter: 1.36e-6
fix div1 CROSS1 nufeb/division/coccus 1.36e-6 1867
fix div2 CROSS2 nufeb/division/coccus 1.36e-6 7162
fix div3 CHEATER nufeb/division/coccus 1.36e-6 15985

fix death1 CROSS1 nufeb/death/diameter dead 5.43e-7
fix death2 CROSS2 nufeb/death/diameter dead 5.43e-7
fix death3 CHEATER nufeb/death/diameter dead 5.43e-7

#---------------------------Physical Processes--------------------------------#

pair_style  gran/hooke/history 1e-4 NULL 1e-5 NULL 0.0 0    # pairwise interaction
pair_coeff  * *                                             # between atoms

# pairwise interaction between z-wall and atoms
fix wall all wall/gran hooke/history 1e-3 NULL 1e-4 NULL 0 0 zplane 0.0 1e-04

fix vis all viscous 1e-5                                    # viscous damping force

fix grav all gravity 9.81 vector 0.0 0.0 -1.0

fix nve all nve/limit 1e-7                                  # NVE integration with
                                                            # maximum distance limit


#---------------------------Post-Physical Processes---------------------------#

fix coeff_sub all nufeb/diffusion_coeff sub ratio 0.8       # defining diffusion coeff in the biofilm
fix coeff_metab1 all nufeb/diffusion_coeff metab1 ratio 0.8    # region is 80% of the value in liquid
fix coeff_metab2 all nufeb/diffusion_coeff metab2 ratio 0.8

#---------------------------Chemical Processes---------------------------------#

fix diff_sub all nufeb/diffusion_reaction sub 1e-9        # diffusion reaction for updating
fix diff_metab1 all nufeb/diffusion_reaction metab1 4e-9     # distribusion of substrate concentration
fix diff_metab2 all nufeb/diffusion_reaction metab2 4e-9

#--------------------------Computations and Outputs----------------------------#

variable mass equal "mass(all)"                             # total mass
variable ncross1 equal "count(CROSS1)"                      # total # of CROSS1
variable ncross2 equal "count(CROSS2)"                      # total # of CROSS2
variable ncheater equal "count(CHEATER)"
variable ndead equal "count(dead)"

shell mkdir vtk_NEPS_ch                                            # dump vtk files to /vtk folder
dump du1 all vtk 10 vtk_NEPS_ch/dump*.vtu id type diameter         # require build NUFEB with vtk option
dump du2 all grid/vtk 10 vtk_NEPS_ch/dump_%_*.vti con rea den gro

#dump du3 all movie 10 movie.avi type diameter view 80 60    # dump video
#dump_modify du3 acolor 1 blue acolor 2 lightgrey framerate 10


                                                            # dump hdf5 files to /hdf5 folder
#shell mkdir hdf5                                           # require build NUFEB with hdf5 option
#dump du3 all nufeb/hdf5 10 dump.h5 id type x y z vx vy vz fx fy fz radius conc reac

thermo_style custom step cpu atoms v_ncross1 v_ncross2 v_ncheater v_ndead v_mass     # screen and log outputs
thermo 1
thermo_modify   lost ignore

#-----------------------------------Run----------------------------------------#

# issue run command, define timesteps for physical (pairdt) and chemical (diffdt) processes
run_style nufeb diffdt 1e-4 difftol 1e-6 pairdt 1e-2 pairtol 1 pairmax 1000 diffmax 5000

timestep 12000                                               # define biological timesteps (1000s)

run 320                                                    # growing biofilm for 900x1000s
Generated 0 of 6 mixed pair_coeff terms from geometric mixing rule
Last active /omp style is pair_style gran/hooke/history/omp
Neighbor list info ...
  update every 1 steps, delay 10 steps, check yes
  max neighbors/atom: 2000, page size: 100000
  master list distance cutoff = 2.49e-06
  ghost atom cutoff = 2.49e-06
  binsize = 1.245e-06, bins = 49 49 49
  1 neighbor lists, perpetual/occasional/extra = 1 0 0
  (1) pair gran/hooke/history/omp, perpetual
      attributes: half, newton off, size, history, omp
      pair build: half/size/bin/newtoff/omp
      stencil: full/bin/3d
      bin: standard
Per MPI rank memory allocation (min/avg/max) = 11.02 | 11.02 | 11.02 Mbytes
   Step          CPU          Atoms      v_ncross1      v_ncross2      v_ncheater      v_ndead         v_mass    
         0   0                    150   50             50             50             0              1.3295396e-13
         1   0.3952212            273   96             91             86             0              1.9616795e-13
         2   0.75687131           431   148            148            135            0              2.2406404e-13
         3   1.0719131            546   176            198            172            0              2.4556033e-13
         4   1.3650363            594   191            214            189            0              2.6433609e-13
         5   1.5675993            629   201            223            205            0              2.8200166e-13
         6   1.7334418            666   211            239            216            0              2.9864204e-13
         7   1.8702063            704   226            245            233            0              3.1451378e-13
         8   2.0042396            740   239            259            242            0              3.2943175e-13
         9   2.1276904            788   253            275            260            0              3.4377541e-13
        10   7.1918854            813   258            279            276            0              3.574161e-13 
        11   7.4238175            850   269            287            294            0              3.7039374e-13
        12   7.5752473            866   272            295            299            0              3.8295669e-13
        13   7.737915             901   278            303            320            0              3.9455884e-13
        14   7.9159174            929   285            313            331            0              4.0570297e-13
        15   8.0318254            954   291            319            344            0              4.1650398e-13
        16   8.1642756            980   298            327            355            0              4.2664058e-13
        17   8.3031223           1004   303            335            366            0              4.3626622e-13
        18   8.4107234           1038   311            344            383            0              4.4549941e-13
        19   8.5151812           1061   316            347            398            0              4.5434196e-13
        20   8.6523513           1083   320            351            412            0              4.6292297e-13
        21   8.7666521           1100   322            354            424            0              4.7142627e-13
        22   8.8826505           1124   326            361            437            0              4.7967835e-13
        23   9.0704765           1149   331            364            454            0              4.877867e-13 
        24   9.2773984           1168   336            369            463            0              4.9572972e-13
        25   9.3584995           1185   339            372            474            0              5.034972e-13 
        26   9.4582946           1220   346            375            499            0              5.1098791e-13
        27   9.5311513           1248   350            382            516            0              5.1833632e-13
        28   9.6315246           1265   352            386            527            0              5.2539583e-13
        29   9.7249662           1290   355            388            547            0              5.3213792e-13
        30   9.8707739           1316   358            394            564            0              5.3875164e-13
        31   10.002336           1332   361            396            575            0              5.452148e-13 
        32   10.122562           1358   363            399            596            0              5.515423e-13 
        33   10.247915           1380   364            402            614            0              5.5790711e-13
        34   10.370004           1401   365            405            631            0              5.6439007e-13
        35   10.500074           1425   367            407            651            0              5.7078537e-13
        36   10.621743           1442   369            410            663            0              5.7694666e-13
        37   10.761563           1463   369            411            683            0              5.8308903e-13
        38   10.929571           1484   370            415            699            0              5.8940767e-13
        39   11.085148           1504   373            418            713            0              5.960404e-13 
        40   11.232466           1533   374            418            741            0              6.0281069e-13
        41   11.373041           1553   374            421            758            0              6.0964416e-13
        42   11.529113           1576   375            425            776            0              6.1657076e-13
        43   11.648498           1599   376            426            797            0              6.2360778e-13
        44   11.780175           1625   376            429            819            1              6.3063372e-13
        45   11.898047           1643   378            430            834            1              6.3765507e-13
        46   12.005235           1668   378            431            857            2              6.446255e-13 
        47   12.102723           1702   380            432            888            2              6.5149592e-13
        48   12.238905           1726   381            434            909            2              6.5823431e-13
        49   12.347777           1753   381            436            934            2              6.6521313e-13
        50   12.494202           1779   381            438            958            2              6.7201457e-13
        51   12.653195           1805   381            440            982            2              6.7885441e-13
        52   12.813094           1832   381            441            1008           2              6.8592059e-13
        53   12.982747           1863   383            443            1035           2              6.9304025e-13
        54   13.16153            1895   386            445            1062           2              7.0045592e-13
        55   13.351159           1924   387            445            1089           3              7.0797779e-13
        56   13.55065            1949   388            447            1107           7              7.1579539e-13
        57   13.727308           1981   389            447            1135           10             7.2392897e-13
        58   13.902395           2010   389            447            1158           16             7.3215937e-13
        59   14.073014           2039   390            449            1177           23             7.4042402e-13
        60   14.2482             2070   391            449            1201           29             7.4875115e-13
        61   14.378678           2095   391            450            1220           34             7.5695275e-13
        62   14.513038           2129   391            450            1247           41             7.6491501e-13
        63   14.644208           2162   391            451            1272           48             7.7268297e-13
        64   14.773572           2191   391            452            1289           59             7.8023626e-13
        65   14.868176           2229   392            452            1319           66             7.8774328e-13
        66   15.008575           2254   392            453            1334           75             7.948241e-13 
        67   15.158995           2283   393            455            1353           82             8.0204457e-13
        68   15.304413           2312   393            456            1374           89             8.0927885e-13
        69   15.484943           2339   393            457            1392           97             8.1646203e-13
        70   15.745005           2368   394            458            1410           106            8.2400348e-13
        71   15.992339           2398   394            457            1431           116            8.3204355e-13
        72   16.30919            2437   394            457            1463           123            8.4079685e-13
        73   16.605016           2470   394            457            1487           132            8.5080309e-13
        74   16.895299           2511   394            457            1525           135            8.6141994e-13
        75   17.177069           2553   394            457            1561           141            8.7259885e-13
        76   17.460986           2600   394            456            1594           156            8.8427717e-13
        77   17.724831           2647   394            456            1632           165            8.9637756e-13
        78   17.9658             2688   394            456            1668           170            9.0870524e-13
        79   18.170489           2740   394            452            1712           182            9.2098125e-13
        80   18.413018           2789   394            451            1752           192            9.3309608e-13
        81   18.618283           2844   394            452            1799           199            9.4520996e-13
        82   18.847539           2885   394            452            1832           207            9.5702248e-13
        83   19.08046            2946   394            452            1884           216            9.6909048e-13
        84   19.340343           3003   394            452            1933           224            9.8105022e-13
        85   19.656201           3058   394            451            1984           229            9.9327267e-13
        86   20.024371           3110   393            451            2029           237            1.0063224e-12
        87   20.385835           3168   393            451            2080           244            1.0197908e-12
        88   20.755021           3229   393            449            2127           260            1.0341755e-12
        89   21.102016           3286   393            449            2176           268            1.0493704e-12
        90   21.440075           3344   392            448            2226           278            1.0651912e-12
        91   21.787202           3412   392            448            2285           287            1.0810723e-12
        92   22.123562           3476   391            448            2343           294            1.0974932e-12
        93   22.445865           3543   391            446            2401           305            1.1140532e-12
        94   22.736761           3603   391            444            2455           313            1.1307245e-12
        95   23.009808           3681   391            443            2527           320            1.1473531e-12
        96   23.321683           3759   390            443            2601           325            1.1636272e-12
        97   23.656141           3835   390            443            2673           329            1.18026e-12  
        98   24.014738           3909   390            443            2745           331            1.1969506e-12
        99   24.40072            3977   388            443            2805           341            1.2141706e-12
       100   24.80044            4056   388            443            2879           346            1.2326632e-12
       101   25.175964           4150   387            443            2967           353            1.2515546e-12
       102   25.581933           4235   387            443            3050           355            1.2706461e-12
       103   25.956754           4322   387            442            3135           358            1.2902303e-12
       104   26.321912           4410   387            442            3215           366            1.3099636e-12
       105   26.713124           4495   387            442            3295           371            1.329721e-12 
       106   27.056789           4581   387            442            3372           380            1.3491862e-12
       107   27.42441            4666   387            441            3453           385            1.3684172e-12
       108   27.792467           4759   387            441            3540           391            1.3877042e-12
       109   28.229912           4845   387            440            3624           394            1.4073498e-12
       110   28.729262           4937   387            440            3710           400            1.4276189e-12
       111   29.167385           5027   387            439            3798           403            1.4484182e-12
       112   29.586996           5136   386            439            3901           410            1.4705915e-12
       113   29.990499           5225   386            439            3986           414            1.493752e-12 
       114   30.403523           5323   385            439            4072           427            1.5175195e-12
       115   30.79794            5450   385            438            4190           437            1.5418622e-12
       116   31.207251           5544   383            438            4272           451            1.5660206e-12
       117   31.592673           5653   383            437            4373           460            1.5900248e-12
       118   31.943315           5756   383            435            4459           479            1.6135087e-12
       119   32.325382           5864   383            435            4550           496            1.6364611e-12
       120   32.716538           5984   383            435            4658           508            1.6590453e-12
       121   33.074456           6076   382            435            4722           537            1.6813539e-12
       122   33.503526           6180   382            434            4806           558            1.7033242e-12
       123   33.939356           6297   382            432            4900           583            1.7258512e-12
       124   34.370735           6421   382            431            5005           603            1.7492575e-12
       125   34.821378           6520   382            431            5082           625            1.7736549e-12
       126   35.258228           6631   382            430            5173           646            1.7990427e-12
       127   35.696809           6734   382            430            5252           670            1.8252426e-12
       128   36.125637           6850   382            429            5341           698            1.8522531e-12
       129   36.563809           6964   382            428            5426           728            1.8793799e-12
       130   37.032339           7098   382            426            5529           761            1.906565e-12 
       131   37.48869            7225   382            425            5631           787            1.9337831e-12
       132   38.001935           7352   382            424            5729           817            1.9607382e-12
       133   38.473383           7465   382            424            5808           851            1.9885312e-12
       134   38.953272           7603   382            424            5914           883            2.0166868e-12
       135   39.413607           7726   382            423            6005           916            2.0463793e-12
       136   39.898544           7871   382            422            6123           944            2.0767538e-12
       137   40.36788            8000   382            422            6221           975            2.1086976e-12
       138   40.833782           8146   382            422            6333           1009           2.1420536e-12
       139   41.320275           8307   382            422            6458           1045           2.1762688e-12
       140   41.837881           8446   382            422            6564           1078           2.2107604e-12
       141   42.321629           8607   382            421            6682           1122           2.2453242e-12
       142   42.831329           8766   382            421            6811           1152           2.2799482e-12
       143   43.334585           8934   382            421            6938           1193           2.3142689e-12
       144   43.853368           9088   382            421            7050           1235           2.3487778e-12
       145   44.389935           9233   382            421            7158           1272           2.3851126e-12
       146   44.922828           9422   382            421            7312           1307           2.4232697e-12
       147   45.477329           9595   382            421            7441           1351           2.4628059e-12
       148   46.029654           9796   382            420            7602           1392           2.5043875e-12
       149   46.628703           9998   382            418            7757           1441           2.5480445e-12
       150   47.231963          10193   382            418            7899           1494           2.5930705e-12
       151   47.852699          10389   382            417            8053           1537           2.638837e-12 
       152   48.468389          10589   382            416            8207           1584           2.6855849e-12
       153   49.140772          10782   382            415            8356           1629           2.7324564e-12
       154   49.762878          11001   382            415            8525           1679           2.7805914e-12
       155   50.40902           11211   382            415            8697           1717           2.8305115e-12
       156   51.049867          11427   382            415            8855           1775           2.8830453e-12
       157   51.717895          11678   382            415            9051           1830           2.9377017e-12
       158   52.41291           11931   382            413            9261           1875           2.9955474e-12
       159   53.080967          12179   382            413            9456           1928           3.0564327e-12
       160   53.859559          12467   382            413            9675           1997           3.1202895e-12
       161   54.62194           12749   382            412            9892           2063           3.1864589e-12
       162   55.398451          13007   382            412            10090          2123           3.2546128e-12
       163   56.226027          13287   382            412            10299          2194           3.3247867e-12
       164   57.108261          13591   382            412            10548          2249           3.3995483e-12
       165   58.11988           13924   382            411            10821          2310           3.4800516e-12
       166   59.136633          14243   382            411            11084          2366           3.5684087e-12
       167   60.254405          14607   382            411            11390          2424           3.665088e-12 
       168   61.42527           14988   382            411            11705          2490           3.7705031e-12
       169   62.819315          15377   382            411            12016          2568           3.8839956e-12
       170   64.32625           15789   382            411            12364          2632           4.0038424e-12
       171   65.92889           16235   382            411            12746          2696           4.1302444e-12
       172   67.670969          16679   381            410            13123          2765           4.2558128e-12
       173   69.493941          17137   381            409            13494          2853           4.3816823e-12
       174   71.672729          17607   381            409            13887          2930           4.5092688e-12
       175   73.951804          18050   381            409            14230          3030           4.6373953e-12
       176   76.268639          18539   381            408            14639          3111           4.7774463e-12
       177   78.642593          19048   381            408            15087          3172           4.9137102e-12
       178   81.088909          19533   381            408            15490          3254           5.0490491e-12
       179   83.576977          20054   380            408            15952          3314           5.1927649e-12
       180   86.158009          20583   380            408            16405          3390           5.3388682e-12
       181   88.717774          21151   380            408            16895          3468           5.491038e-12 
       182   91.316843          21666   380            408            17331          3547           5.6292425e-12
       183   93.929515          22218   380            407            17798          3633           5.7788641e-12
       184   96.578464          22781   380            405            18274          3722           5.9397509e-12
       185   99.246507          23383   379            404            18800          3800           6.0998386e-12
       186   101.91664          23968   379            404            19299          3886           6.2604329e-12
       187   104.58515          24658   378            399            19914          3967           6.4432195e-12
       188   107.26124          25264   377            395            20416          4076           6.6108485e-12
       189   109.94476          25950   375            394            21013          4168           6.792866e-12 
       190   112.6935           26600   374            391            21569          4266           6.9659991e-12
       191   115.3701           27282   373            390            22153          4366           7.1521152e-12
       192   118.11532          27965   372            387            22709          4497           7.3265209e-12
       193   120.78469          28726   370            382            23325          4649           7.5428942e-12
       194   123.44916          29534   369            376            24005          4784           7.7491513e-12
       195   126.13863          30278   369            370            24601          4938           7.9606209e-12
       196   128.82819          31024   364            368            25211          5081           8.1645856e-12
       197   131.50409          31753   362            363            25804          5224           8.3641245e-12
       198   134.19954          32608   361            358            26515          5374           8.5759405e-12
       199   136.90904          33437   358            355            27172          5552           8.7933026e-12
       200   139.71164          34227   358            351            27794          5724           8.9984069e-12
       201   142.44377          35017   353            341            28400          5923           9.1871946e-12
       202   145.16353          35821   347            338            28944          6192           9.3914174e-12
       203   147.84638          36673   344            329            29566          6434           9.5941763e-12
       204   150.5365           37447   337            318            30100          6692           9.7818645e-12
       205   153.24767          38180   321            302            30561          6996           9.9624484e-12
       206   155.99055          39051   310            292            31175          7274           1.0148497e-11
       207   158.72647          39785   297            274            31638          7576           1.0312278e-11
       208   161.44696          40619   284            259            32207          7869           1.0505811e-11
       209   164.19225          41343   268            239            32646          8190           1.0652234e-11
       210   167.06229          42043   253            213            33026          8551           1.0781888e-11
       211   169.85576          42773   232            192            33463          8886           1.0902974e-11
       212   172.68232          43432   212            175            33824          9221           1.1021742e-11
       213   175.48636          44114   188            153            34209          9564           1.1128183e-11
       214   178.30999          44763   164            138            34567          9894           1.1231931e-11
       215   181.1487           45385   141            118            34903          10223          1.133613e-11 
       216   183.99917          45930   121            105            35192          10512          1.1401801e-11
       217   186.84063          46579   102            90             35625          10762          1.1478478e-11
       218   189.73946          47209   82             74             36033          11020          1.1555659e-11
       219   192.64988          47766   71             59             36420          11216          1.1612179e-11
       220   195.6912           48308   54             46             36778          11430          1.1661064e-11
       221   198.64827          48798   44             31             37089          11634          1.1701961e-11
       222   201.63139          49219   37             25             37328          11829          1.1718278e-11
       223   204.6338           49724   23             15             37643          12043          1.174652e-11 
       224   207.67273          50273   16             13             37985          12259          1.1751516e-11
       225   210.71293          50714   9              10             38215          12480          1.1789557e-11
       226   213.7609           51257   7              10             38510          12730          1.1820317e-11
       227   216.81452          51618   6              9              38574          13029          1.1824044e-11
       228   219.92825          52104   5              6              38749          13344          1.1850652e-11
       229   223.07161          52565   3              6              38921          13635          1.1857016e-11
       230   226.43943          52961   3              5              39046          13907          1.1842124e-11
       231   229.63207          53318   3              2              39107          14206          1.1817883e-11
       232   232.81265          53703   2              2              39149          14550          1.1799613e-11
       233   236.08925          54141   0              0              39242          14899          1.1814792e-11
       234   239.34841          54544   0              0              39319          15225          1.1818921e-11
       235   242.65193          54963   0              0              39408          15555          1.1820892e-11
       236   246.00164          55338   0              0              39431          15907          1.1793773e-11
       237   249.39123          55794   0              0              39596          16198          1.1810111e-11
       238   252.78643          56214   0              0              39710          16504          1.1815567e-11
       239   256.24733          56491   0              0              39657          16834          1.1791825e-11
       240   259.87486          56910   0              0              39799          17111          1.1776206e-11
       241   263.39509          57365   0              0              39975          17390          1.180785e-11 
       242   266.98521          57743   0              0              40037          17706          1.1800289e-11
       243   270.57424          58065   0              0              40059          18006          1.1775326e-11
       244   274.18348          58481   0              0              40177          18304          1.1776359e-11
       245   277.83004          58810   0              0              40202          18608          1.1764722e-11
       246   281.54406          59126   0              0              40219          18907          1.1727493e-11
       247   285.26893          59521   0              0              40354          19167          1.1737808e-11
       248   289.01988          59869   0              0              40392          19477          1.1724343e-11
       249   292.84744          60176   0              0              40394          19782          1.1703001e-11
       250   296.80516          60608   0              0              40531          20077          1.1729033e-11
       251   300.65325          61105   0              0              40685          20420          1.176812e-11 
       252   304.54901          61349   0              0              40604          20745          1.1739313e-11
       253   308.5595           61734   0              0              40650          21084          1.1726139e-11
       254   312.5724           62114   0              0              40679          21435          1.1731623e-11
       255   316.59377          62361   0              0              40560          21801          1.1714893e-11
       256   320.66412          62721   0              0              40583          22138          1.1714446e-11
       257   324.7615           63166   0              0              40663          22503          1.1720933e-11
       258   328.94905          63508   0              0              40634          22874          1.1726201e-11
       259   333.13795          63768   0              0              40494          23274          1.1706576e-11
       260   337.52768          64064   0              0              40421          23643          1.171129e-11 
       261   341.76352          64493   0              0              40450          24043          1.1725635e-11
       262   346.06851          64839   0              0              40409          24430          1.1719561e-11
       263   350.36645          65142   0              0              40338          24804          1.1716781e-11
       264   354.73001          65520   0              0              40275          25245          1.1729474e-11
       265   359.18061          65794   0              0              40117          25677          1.1697009e-11
       266   363.58077          66146   0              0              40035          26111          1.1724144e-11
       267   368.0092           66466   0              0              39899          26567          1.1715754e-11
       268   372.50567          66712   0              0              39655          27057          1.166751e-11 
       269   377.05327          67058   0              0              39518          27540          1.1702057e-11
       270   381.81802          67435   0              0              39438          27997          1.1695989e-11
       271   386.44077          67772   0              0              39276          28496          1.1703526e-11
       272   390.91341          68114   0              0              39203          28911          1.1728699e-11
       273   395.52267          68418   0              0              39039          29379          1.1716659e-11
       274   400.26663          68700   0              0              38850          29850          1.1707882e-11
       275   404.95009          69100   0              0              38721          30379          1.1736448e-11
       276   409.73441          69365   0              0              38517          30848          1.1725788e-11
       277   414.54204          69643   0              0              38317          31326          1.172161e-11 
       278   419.45527          69929   0              0              38141          31788          1.1728867e-11
       279   424.21566          70302   0              0              38028          32274          1.173732e-11 
       280   429.15958          70657   0              0              37913          32744          1.1767611e-11
       281   434.09949          70913   0              0              37679          33234          1.1752308e-11
       282   438.92008          71332   0              0              37659          33673          1.1795913e-11
       283   443.94725          71556   0              0              37461          34095          1.177833e-11 
       284   449.00154          71906   0              0              37405          34501          1.1797055e-11
       285   454.03424          72231   0              0              37302          34929          1.1803341e-11
       286   459.12122          72544   0              0              37156          35388          1.1817583e-11
       287   464.26556          72862   0              0              37087          35775          1.1828984e-11
       288   469.53692          73073   0              0              36898          36175          1.1812119e-11
       289   474.68209          73415   0              0              36835          36580          1.1840644e-11
       290   480.19708          73665   0              0              36704          36961          1.1832972e-11
       291   485.45677          74098   0              0              36768          37330          1.1873286e-11
       292   490.66696          74397   0              0              36693          37704          1.1867955e-11
       293   495.95733          74621   0              0              36541          38080          1.185896e-11 
       294   501.18744          74985   0              0              36538          38447          1.1888592e-11
       295   506.48671          75243   0              0              36413          38830          1.1904814e-11
       296   511.80635          75586   0              0              36424          39162          1.1922955e-11
       297   517.28608          75922   0              0              36380          39542          1.1934801e-11
       298   522.69672          76125   0              0              36206          39919          1.194437e-11 
       299   528.1985           76414   0              0              36138          40276          1.1929605e-11
       300   533.82196          76840   0              0              36236          40604          1.1968329e-11
       301   539.37512          77065   0              0              36133          40932          1.19582e-11  
       302   544.94945          77426   0              0              36145          41281          1.2013961e-11
       303   550.68813          77636   0              0              36042          41594          1.1968746e-11
       304   556.336            77934   0              0              36005          41929          1.1985015e-11
       305   562.03349          78286   0              0              36041          42245          1.2012499e-11
       306   567.79995          78595   0              0              36005          42590          1.2015144e-11
       307   573.57814          78873   0              0              35956          42917          1.2027558e-11
       308   579.48593          79137   0              0              35887          43250          1.2025471e-11
       309   585.34833          79496   0              0              35911          43585          1.2056414e-11
       310   591.48227          79798   0              0              35882          43916          1.2063455e-11
       311   597.60752          80074   0              0              35814          44260          1.2057924e-11
       312   603.71474          80349   0              0              35789          44560          1.2079604e-11
       313   609.80932          80611   0              0              35744          44867          1.2087574e-11
       314   615.99812          80940   0              0              35771          45169          1.2096584e-11
       315   622.19349          81237   0              0              35769          45468          1.2104775e-11
       316   628.41331          81548   0              0              35784          45764          1.2106332e-11
       317   634.71498          81841   0              0              35750          46091          1.2122338e-11
       318   640.98738          82104   0              0              35729          46375          1.2128665e-11
       319   647.30162          82430   0              0              35730          46700          1.2149547e-11
       320   653.92385          82691   0              0              35639          47052          1.2152013e-11
Loop time of 653.924 on 16 procs for 320 steps with 82691 atoms

96.8% CPU use with 16 MPI tasks x 1 OpenMP threads

MPI task timing breakdown:
Section |  min time  |  avg time  |  max time  |%varavg| %total
---------------------------------------------------------------
Pair    | 135.44     | 174.6      | 253        | 259.6 | 26.70
Neigh   | 21.941     | 38.866     | 89.71      | 330.3 |  5.94
Comm    | 84.48      | 111        | 146.45     | 189.1 | 16.97
Output  | 7.5496     | 7.5498     | 7.5514     |   0.0 |  1.15
Modify  | 145.87     | 297.65     | 375.25     | 384.3 | 45.52
Other   |            | 24.26      |            |       |  3.71

Nlocal:        5168.19 ave        9696 max        3766 min
Histogram: 7 3 2 2 0 0 0 0 0 2
Nghost:        4102.25 ave        6802 max        2943 min
Histogram: 7 1 2 2 0 1 0 1 1 1
Neighs:        42342.9 ave       55080 max       35268 min
Histogram: 2 4 2 2 2 1 1 0 0 2

Total # of neighbors = 677487
Ave neighs/atom = 8.1929956
Neighbor list builds = 4852
Dangerous builds = 430

Total wall time: 0:10:54
