LAMMPS (23 Jun 2022 - Update 4)
  using 1 OpenMP thread(s) per MPI task
package omp 0
using multi-threaded neighbor list subroutines
#-----------------------------------------------------------------------------#
#                NUFEB Simulation: Heterotrophic Biofilm Growth               #
#-----------------------------------------------------------------------------#


#-----------------------------System Settings---------------------------------#

units si                                    # using si units (m, s, kg)
atom_style      coccus                      # using nufeb coccus atom style
atom_modify     map array sort 10 0         # map array - find atoms using indices
		                            # sort every 10

boundary        pp pp ff                    # periodic boundaries in x and y
                                            # fixed boundary in z

newton          off                         # forces between local and ghost
                                            # atoms are computed in each
					     # processor without communication

processors      * * 1                       # processor grid

comm_modify     vel yes                     # communicate velocities for ghost atoms

read_data       atom_ch.in	             # read atom.in file which defines domain size
Reading data file ...
  orthogonal box = (0 0 0) to (6e-05 6e-05 6e-05)
  4 by 4 by 1 MPI processor grid
  reading atoms ...
  150 atoms
  read_data CPU = 0.019 seconds
                                            # and initial atoms


#--------------------Microbes and Functional Groups-------------------------#

group           CROSS1   type 1               # assign type 1,2 atoms to CROSS group
50 atoms in group CROSS1
group           CROSS2   type 2
50 atoms in group CROSS2
group		CHEATER  type 3
50 atoms in group CHEATER
group           dead     type 4
0 atoms in group dead

neighbor        5e-7 bin                   # setting neighbour skin distance and style

neigh_modify    check yes                  # rebuild neighbour list if any atom
                                           # had moved more than half the skin distance


#--------------------------Mesh Grid and Substrates--------------------------#

# defining grid sytle, substrate names, and grid size
grid_style      nufeb/chemostat 3 sub metab1 metab2 5e-6

# set diffusion boundary conditions and initial concentrations (liquid:kg/m3)
grid_modify     set sub      pp pp nd  1.8e-4
No /omp style for force computation currently active
grid_modify     set metab1   pp pp nd  1e-4
No /omp style for force computation currently active
grid_modify     set metab2   pp pp nd  1e-4
No /omp style for force computation currently active


#--------------------------Biological Processes-------------------------------#

# heterotrophs growth
fix growth_cross1 CROSS1 nufeb/growth/cross1 sub 3.5e-5 metab2 4e-3 metab1 growth 0.009 yield 0.6 decay 2.6e-6 metab1_exp 20

fix growth_cross2 CROSS2 nufeb/growth/cross2 sub 3.5e-5 metab1 4e-3 metab2 growth 0.009 yield 0.6 decay 2.6e-6 metab2_exp 20

fix growth_cheater CHEATER nufeb/growth/cheater sub 3.5e-5 metab1 1e-3 metab2 1e-3 growth 0.009 yield 0.6 decay 2.6e-6
# heterotrophs division, division diameter: 1.36e-6
fix div1 CROSS1 nufeb/division/coccus 1.36e-6 184
fix div2 CROSS2 nufeb/division/coccus 1.36e-6 430
fix div3 CHEATER nufeb/division/coccus 1.36e-6 838

fix death1 CROSS1 nufeb/death/diameter dead 5.43e-7
fix death2 CROSS2 nufeb/death/diameter dead 5.43e-7
fix death3 CHEATER nufeb/death/diameter dead 5.43e-7

#---------------------------Physical Processes--------------------------------#

pair_style  gran/hooke/history 1e-4 NULL 1e-5 NULL 0.0 0    # pairwise interaction
pair_coeff  * *                                             # between atoms

# pairwise interaction between z-wall and atoms
fix wall all wall/gran hooke/history 1e-3 NULL 1e-4 NULL 0 0 zplane 0.0 1e-04

fix vis all viscous 1e-5                                    # viscous damping force

fix grav all gravity 9.81 vector 0.0 0.0 -1.0

fix nve all nve/limit 1e-7                                  # NVE integration with
                                                            # maximum distance limit


#---------------------------Post-Physical Processes---------------------------#

fix coeff_sub all nufeb/diffusion_coeff sub ratio 0.8       # defining diffusion coeff in the biofilm
fix coeff_metab1 all nufeb/diffusion_coeff metab1 ratio 0.8    # region is 80% of the value in liquid
fix coeff_metab2 all nufeb/diffusion_coeff metab2 ratio 0.8

#---------------------------Chemical Processes---------------------------------#

fix diff_sub all nufeb/diffusion_reaction sub 1e-9        # diffusion reaction for updating
fix diff_metab1 all nufeb/diffusion_reaction metab1 4e-9     # distribusion of substrate concentration
fix diff_metab2 all nufeb/diffusion_reaction metab2 4e-9

#--------------------------Computations and Outputs----------------------------#

variable mass equal "mass(all)"                             # total mass
variable ncross1 equal "count(CROSS1)"                      # total # of CROSS1
variable ncross2 equal "count(CROSS2)"                      # total # of CROSS2
variable ncheater equal "count(CHEATER)"
variable ndead equal "count(dead)"

shell mkdir vtk_NEPS_ch                                            # dump vtk files to /vtk folder
dump du1 all vtk 10 vtk_NEPS_ch/dump*.vtu id type diameter         # require build NUFEB with vtk option
dump du2 all grid/vtk 10 vtk_NEPS_ch/dump_%_*.vti con rea den gro

#dump du3 all movie 10 movie.avi type diameter view 80 60    # dump video
#dump_modify du3 acolor 1 blue acolor 2 lightgrey framerate 10


                                                            # dump hdf5 files to /hdf5 folder
#shell mkdir hdf5                                           # require build NUFEB with hdf5 option
#dump du3 all nufeb/hdf5 10 dump.h5 id type x y z vx vy vz fx fy fz radius conc reac

thermo_style custom step cpu atoms v_ncross1 v_ncross2 v_ncheater v_ndead v_mass     # screen and log outputs
thermo 1
thermo_modify   lost ignore

#-----------------------------------Run----------------------------------------#

# issue run command, define timesteps for physical (pairdt) and chemical (diffdt) processes
run_style nufeb diffdt 1e-4 difftol 1e-6 pairdt 1e-2 pairtol 1 pairmax 1000 diffmax 5000

timestep 12000                                               # define biological timesteps (1000s)

run 320                                                    # growing biofilm for 900x1000s
Generated 0 of 6 mixed pair_coeff terms from geometric mixing rule
Last active /omp style is pair_style gran/hooke/history/omp
Neighbor list info ...
  update every 1 steps, delay 10 steps, check yes
  max neighbors/atom: 2000, page size: 100000
  master list distance cutoff = 2.49e-06
  ghost atom cutoff = 2.49e-06
  binsize = 1.245e-06, bins = 49 49 49
  1 neighbor lists, perpetual/occasional/extra = 1 0 0
  (1) pair gran/hooke/history/omp, perpetual
      attributes: half, newton off, size, history, omp
      pair build: half/size/bin/newtoff/omp
      stencil: full/bin/3d
      bin: standard
Per MPI rank memory allocation (min/avg/max) = 11.02 | 11.02 | 11.02 Mbytes
   Step          CPU          Atoms      v_ncross1      v_ncross2      v_ncheater      v_ndead         v_mass    
         0   0                    150   50             50             50             0              1.3295396e-13
         1   0.397134             273   96             91             86             0              1.9616795e-13
         2   0.76836472           437   149            150            138            0              2.2404122e-13
         3   1.0916565            538   167            195            176            0              2.4525901e-13
         4   1.3918551            582   179            213            190            0              2.6421255e-13
         5   1.6025309            626   193            231            202            0              2.8208333e-13
         6   1.7672209            675   213            244            218            0              2.9882459e-13
         7   1.9248542            709   229            253            227            0              3.150372e-13 
         8   2.0503692            740   240            259            241            0              3.3038069e-13
         9   2.1782495            776   248            271            257            0              3.4496816e-13
        10   2.3063196            813   256            281            276            0              3.5896609e-13
        11   2.4155507            847   263            287            297            0              3.7240609e-13
        12   2.5146492            867   266            293            308            0              3.8511177e-13
        13   2.620661             894   274            299            321            0              3.9738528e-13
        14   2.7230229            925   279            306            340            0              4.0921916e-13
        15   2.8003577            954   286            314            354            0              4.2062677e-13
        16   2.9069472            984   292            323            369            0              4.3149768e-13
        17   2.9748383           1012   298            325            389            0              4.4170483e-13
        18   3.0614951           1039   306            330            403            0              4.513944e-13 
        19   3.1581532           1058   306            336            416            0              4.6077835e-13
        20   3.2545973           1080   311            338            431            0              4.6982941e-13
        21   3.335435            1106   313            343            450            0              4.7841871e-13
        22   3.4394027           1133   322            348            463            0              4.867017e-13 
        23   3.5585945           1153   324            349            480            0              4.9478696e-13
        24   3.6546939           1176   329            352            495            0              5.0258423e-13
        25   3.7565859           1193   333            355            505            0              5.0989363e-13
        26   3.8738774           1213   339            357            517            0              5.1712313e-13
        27   3.9904282           1231   341            358            532            0              5.242527e-13 
        28   4.1167299           1250   343            361            546            0              5.312312e-13 
        29   4.2275059           1268   348            361            559            0              5.3825842e-13
        30   4.383543            1287   351            364            572            0              5.4515314e-13
        31   4.4958387           1313   352            368            593            0              5.5213986e-13
        32   4.6180899           1338   354            372            612            0              5.5894261e-13
        33   4.7357632           1364   355            373            636            0              5.6591624e-13
        34   4.8383213           1386   358            373            655            0              5.7283925e-13
        35   4.9521981           1405   361            374            670            0              5.7960435e-13
        36   5.0517974           1423   363            374            686            0              5.8635357e-13
        37   5.1510622           1440   363            374            703            0              5.9298704e-13
        38   5.2343451           1461   364            376            721            0              5.9949354e-13
        39   5.3245759           1486   366            378            742            0              6.0577707e-13
        40   5.4303694           1509   366            378            765            0              6.119235e-13 
        41   5.5165821           1528   368            380            780            0              6.1780091e-13
        42   5.5902746           1547   371            382            794            0              6.2361003e-13
        43   5.6860953           1569   373            385            811            0              6.2917729e-13
        44   5.7584292           1592   374            385            833            0              6.3476037e-13
        45   5.8365244           1611   374            388            849            0              6.4004406e-13
        46   5.8923119           1629   374            388            867            0              6.4521145e-13
        47   5.9716458           1646   377            389            880            0              6.5011066e-13
        48   6.0504554           1671   377            391            903            0              6.5497211e-13
        49   6.1596858           1688   379            392            917            0              6.5968808e-13
        50   6.3047241           1716   382            393            941            0              6.6455528e-13
        51   6.4352614           1734   383            393            957            1              6.6950804e-13
        52   6.615917            1747   384            394            968            1              6.7452385e-13
        53   6.8049639           1764   384            394            984            2              6.8024425e-13
        54   6.9691979           1788   385            394            1005           4              6.8619159e-13
        55   7.1791736           1805   387            395            1018           5              6.9231284e-13
        56   7.3854935           1834   389            395            1044           6              6.9892885e-13
        57   7.56356             1857   389            395            1063           10             7.0587877e-13
        58   7.74658             1889   391            396            1090           12             7.1300731e-13
        59   7.9282295           1914   392            397            1110           15             7.2025172e-13
        60   8.0854392           1931   392            397            1125           17             7.2758929e-13
        61   8.21303             1969   394            397            1155           23             7.3468216e-13
        62   8.33653             1993   394            398            1170           31             7.4160327e-13
        63   8.4426827           2012   394            398            1184           36             7.483502e-13 
        64   8.5393517           2035   394            398            1204           39             7.5484827e-13
        65   8.6526925           2072   394            399            1234           45             7.6103766e-13
        66   8.7563388           2105   394            399            1260           52             7.6717424e-13
        67   8.9199624           2131   395            399            1278           59             7.7306558e-13
        68   9.0882395           2147   396            399            1288           64             7.7940736e-13
        69   9.2902424           2170   396            399            1302           73             7.8573341e-13
        70   9.5541945           2203   397            399            1329           78             7.9238765e-13
        71   9.8372996           2234   397            399            1352           86             7.9964924e-13
        72   10.122142           2265   397            399            1374           95             8.0776629e-13
        73   10.381449           2300   397            399            1403           101            8.1647064e-13
        74   10.64481            2332   397            399            1427           109            8.2553208e-13
        75   10.874799           2370   398            399            1455           118            8.3489139e-13
        76   11.069613           2401   398            399            1480           124            8.4429267e-13
        77   11.234459           2438   398            399            1512           129            8.5355515e-13
        78   11.418478           2474   398            399            1540           137            8.6253458e-13
        79   11.594124           2512   398            399            1569           146            8.7146917e-13
        80   11.859023           2555   399            399            1608           149            8.8024526e-13
        81   12.144873           2587   399            399            1638           151            8.894262e-13 
        82   12.488209           2616   399            399            1659           159            8.9873445e-13
        83   12.856141           2655   399            399            1689           168            9.0930156e-13
        84   13.215705           2718   399            399            1747           173            9.2111292e-13
        85   13.580909           2747   398            399            1767           183            9.3389124e-13
        86   13.895394           2807   398            399            1815           195            9.4730889e-13
        87   14.212328           2847   398            399            1844           206            9.6112946e-13
        88   14.540329           2905   398            399            1894           214            9.7514041e-13
        89   14.849104           2963   398            399            1950           216            9.8964822e-13
        90   15.159857           3013   398            399            1994           222            1.0042903e-12
        91   15.470321           3077   398            399            2049           231            1.018931e-12 
        92   15.759417           3141   397            399            2105           240            1.0338221e-12
        93   16.070133           3208   396            399            2164           249            1.0488568e-12
        94   16.447911           3264   396            399            2214           255            1.0640608e-12
        95   16.828112           3327   396            399            2270           262            1.0805076e-12
        96   17.217718           3392   396            397            2329           270            1.0976578e-12
        97   17.596701           3491   396            397            2421           277            1.1160096e-12
        98   17.977518           3547   396            397            2472           282            1.1351795e-12
        99   18.349841           3634   396            397            2554           287            1.1551619e-12
       100   18.740054           3709   396            397            2622           294            1.175818e-12 
       101   19.104285           3794   395            397            2701           301            1.1965272e-12
       102   19.42605            3892   395            397            2798           302            1.2172899e-12
       103   19.753662           3967   395            397            2870           305            1.2376879e-12
       104   20.06827            4067   395            396            2967           309            1.257787e-12 
       105   20.395562           4158   393            395            3057           313            1.2777752e-12
       106   20.745534           4241   393            395            3139           314            1.2975068e-12
       107   21.088041           4323   393            395            3218           317            1.3172169e-12
       108   21.474194           4423   393            395            3315           320            1.3370383e-12
       109   21.855605           4515   393            395            3406           321            1.3573436e-12
       110   22.279363           4602   393            395            3492           322            1.3780842e-12
       111   22.661703           4698   393            395            3582           328            1.3996843e-12
       112   23.048033           4792   393            395            3670           334            1.4212111e-12
       113   23.431001           4883   393            395            3757           338            1.4431528e-12
       114   23.808693           4973   393            395            3837           348            1.4653974e-12
       115   24.16411            5075   393            395            3934           353            1.4876345e-12
       116   24.537417           5163   393            395            4015           360            1.5096987e-12
       117   24.912011           5271   393            395            4116           367            1.5316034e-12
       118   25.248667           5354   393            395            4190           376            1.5534176e-12
       119   25.649452           5458   393            395            4284           386            1.5747037e-12
       120   26.063196           5550   393            395            4366           396            1.5963818e-12
       121   26.478893           5642   393            395            4447           407            1.6178329e-12
       122   26.891707           5744   393            395            4541           415            1.6403367e-12
       123   27.323218           5849   393            395            4642           419            1.6628109e-12
       124   27.734053           5942   393            395            4726           428            1.6859798e-12
       125   28.148261           6053   393            395            4828           437            1.7098981e-12
       126   28.577187           6169   393            394            4933           449            1.7344843e-12
       127   29.026229           6278   393            394            5036           455            1.7596603e-12
       128   29.464569           6398   393            394            5149           462            1.7861987e-12
       129   29.870172           6515   393            394            5257           471            1.8133842e-12
       130   30.325544           6628   393            394            5360           481            1.8403265e-12
       131   30.74454            6744   393            394            5468           489            1.8675286e-12
       132   31.160803           6875   393            394            5585           503            1.8949748e-12
       133   31.594356           6987   393            394            5680           520            1.9224735e-12
       134   32.040922           7137   393            394            5812           538            1.9505572e-12
       135   32.479515           7275   393            394            5932           556            1.9794387e-12
       136   32.928071           7405   393            394            6046           572            2.0091914e-12
       137   33.382148           7549   393            394            6161           601            2.0403021e-12
       138   33.815652           7721   393            394            6303           631            2.0728895e-12
       139   34.251791           7866   393            394            6416           663            2.1067228e-12
       140   34.751289           8020   393            394            6534           699            2.1416891e-12
       141   35.195196           8169   393            394            6639           743            2.1774333e-12
       142   35.647387           8347   393            394            6775           785            2.213618e-12 
       143   36.094918           8516   393            394            6892           837            2.2500268e-12
       144   36.538479           8697   393            394            7013           897            2.286772e-12 
       145   37.008808           8879   393            393            7135           958            2.3243657e-12
       146   37.478706           9049   393            393            7261           1002           2.3631885e-12
       147   37.960281           9237   393            393            7385           1066           2.4032768e-12
       148   38.443051           9433   393            393            7506           1141           2.4454845e-12
       149   38.948561           9642   393            393            7641           1215           2.4893841e-12
       150   39.528615           9843   393            393            7770           1287           2.535129e-12 
       151   40.052653          10041   393            393            7896           1359           2.5819087e-12
       152   40.57841           10246   393            393            8047           1413           2.6290742e-12
       153   41.137263          10462   393            393            8209           1467           2.6772416e-12
       154   41.706825          10696   393            393            8392           1518           2.726122e-12 
       155   42.298438          10905   393            393            8532           1587           2.7758983e-12
       156   42.910098          11129   393            392            8687           1657           2.8294877e-12
       157   43.539418          11380   393            392            8871           1724           2.8866087e-12
       158   44.168008          11618   393            392            9044           1789           2.9465613e-12
       159   44.835222          11887   393            391            9249           1854           3.0101314e-12
       160   45.587214          12130   393            391            9424           1922           3.075629e-12 
       161   46.264592          12393   393            391            9635           1974           3.1435967e-12
       162   46.993231          12690   393            391            9881           2025           3.2139866e-12
       163   47.784454          12958   393            391            10097          2077           3.2879011e-12
       164   48.582323          13265   393            390            10335          2147           3.3675654e-12
       165   49.398031          13568   393            390            10587          2198           3.4560378e-12
       166   50.270582          13949   393            390            10918          2248           3.5538989e-12
       167   51.285728          14328   393            388            11240          2307           3.6608509e-12
       168   52.348336          14700   393            388            11559          2360           3.7767309e-12
       169   53.55069           15128   393            388            11923          2424           3.9015819e-12
       170   55.033577          15601   393            388            12327          2493           4.0287675e-12
       171   56.475813          16038   393            388            12695          2562           4.1611924e-12
       172   58.119433          16519   393            388            13125          2613           4.2943851e-12
       173   59.870816          16963   393            388            13517          2665           4.4200766e-12
       174   61.662013          17417   393            388            13919          2717           4.5491391e-12
       175   63.488204          17898   393            387            14350          2768           4.6791322e-12
       176   65.370361          18410   393            386            14793          2838           4.8148661e-12
       177   67.299056          18937   393            386            15250          2908           4.9701697e-12
       178   69.302612          19474   393            385            15724          2972           5.1205735e-12
       179   71.337752          19995   393            385            16173          3044           5.265641e-12 
       180   73.98429           20549   393            385            16658          3113           5.4092038e-12
       181   76.19614           21041   392            384            17084          3181           5.5501765e-12
       182   78.433075          21575   392            383            17540          3260           5.6904297e-12
       183   80.690725          22152   392            383            18023          3354           5.8569621e-12
       184   82.988745          22775   392            382            18550          3451           6.0318953e-12
       185   85.298298          23408   392            381            19055          3580           6.2085298e-12
       186   87.639715          24054   392            380            19578          3704           6.3893366e-12
       187   90.028731          24681   392            377            20069          3843           6.5634748e-12
       188   92.447218          25302   392            376            20556          3978           6.739583e-12 
       189   94.860034          26010   392            374            21111          4133           6.9339679e-12
       190   97.376442          26670   392            372            21626          4280           7.1077904e-12
       191   99.836569          27406   392            371            22186          4457           7.2994713e-12
       192   102.29239          28201   391            369            22813          4628           7.5144072e-12
       193   104.77064          28925   391            369            23343          4822           7.7199533e-12
       194   107.25679          29675   391            368            23918          4998           7.9341707e-12
       195   109.74744          30422   390            366            24485          5181           8.1297198e-12
       196   112.23501          31191   390            363            25096          5342           8.3485368e-12
       197   114.7518           32011   387            363            25724          5537           8.5493094e-12
       198   117.24577          32761   386            360            26290          5725           8.7494752e-12
       199   119.74432          33645   382            356            26985          5922           8.9780791e-12
       200   122.36352          34401   379            354            27553          6115           9.1721153e-12
       201   124.88136          35249   376            345            28210          6318           9.3790676e-12
       202   127.45206          36073   371            336            28826          6540           9.5926099e-12
       203   129.97451          36871   365            332            29425          6749           9.7963528e-12
       204   132.48601          37702   356            321            30047          6978           9.9773169e-12
       205   135.01382          38488   346            312            30652          7178           1.0147615e-11
       206   137.54171          39246   341            307            31215          7383           1.0320498e-11
       207   140.07352          40020   328            292            31822          7578           1.0511342e-11
       208   142.63434          40710   307            271            32348          7784           1.0645115e-11
       209   145.20652          41464   285            252            32896          8031           1.077834e-11 
       210   147.91886          42134   269            240            33381          8244           1.0889403e-11
       211   150.51035          42803   238            216            33829          8520           1.1001441e-11
       212   153.07766          43337   217            202            34123          8795           1.1086861e-11
       213   155.68132          44080   194            174            34601          9111           1.1194547e-11
       214   158.29242          44738   171            146            35053          9368           1.1289571e-11
       215   160.90484          45323   146            132            35398          9647           1.1377622e-11
       216   163.53115          45881   125            105            35725          9926           1.1446084e-11
       217   166.19693          46436   101            85             36030          10220          1.1491736e-11
       218   168.86375          46978   86             70             36330          10492          1.1549667e-11
       219   171.55638          47551   70             57             36626          10798          1.1613732e-11
       220   174.40243          48021   55             45             36871          11050          1.1620495e-11
       221   177.138            48537   44             30             37138          11325          1.166176e-11 
       222   179.87948          49002   34             24             37346          11598          1.1680441e-11
       223   182.66841          49524   29             17             37606          11872          1.1728738e-11
       224   185.49123          50041   21             12             37889          12119          1.1753281e-11
       225   188.32127          50427   14             8              38020          12385          1.1759295e-11
       226   191.1306           50884   9              5              38198          12672          1.17696e-11  
       227   193.97527          51372   8              2              38432          12930          1.1786899e-11
       228   196.81482          51831   6              2              38629          13194          1.1803954e-11
       229   199.68501          52211   3              1              38763          13444          1.1787392e-11
       230   202.70001          52626   3              1              38921          13701          1.1789721e-11
       231   205.63994          53020   2              1              39036          13981          1.1792218e-11
       232   208.58344          53431   2              1              39154          14274          1.1788983e-11
       233   211.52398          53905   1              0              39343          14561          1.1794795e-11
       234   214.48857          54336   0              0              39466          14870          1.1791845e-11
       235   217.48935          54663   0              0              39517          15146          1.1766947e-11
       236   220.49019          55061   0              0              39621          15440          1.177668e-11 
       237   223.53711          55432   0              0              39664          15768          1.1773445e-11
       238   226.62036          55813   0              0              39751          16062          1.1757076e-11
       239   229.70669          56174   0              0              39816          16358          1.1729136e-11
       240   232.92194          56576   0              0              39936          16640          1.1729001e-11
       241   236.06322          57024   0              0              40096          16928          1.1757226e-11
       242   239.23023          57280   0              0              40055          17225          1.1715135e-11
       243   242.4176           57667   0              0              40166          17501          1.1705236e-11
       244   245.6403           58092   0              0              40284          17808          1.1706266e-11
       245   248.87653          58448   0              0              40301          18147          1.1711933e-11
       246   252.14517          58734   0              0              40259          18475          1.1675404e-11
       247   255.4209           59104   0              0              40340          18764          1.1680279e-11
       248   258.73656          59470   0              0              40383          19087          1.1658085e-11
       249   262.05392          59884   0              0              40503          19381          1.1690185e-11
       250   265.60409          60217   0              0              40539          19678          1.1669123e-11
       251   269.03997          60562   0              0              40572          19990          1.167186e-11 
       252   272.41651          60889   0              0              40569          20320          1.1650017e-11
       253   275.80613          61166   0              0              40502          20664          1.1648935e-11
       254   279.28387          61576   0              0              40559          21017          1.1635786e-11
       255   282.78018          61902   0              0              40550          21352          1.1640753e-11
       256   286.29345          62331   0              0              40619          21712          1.1679897e-11
       257   289.83364          62714   0              0              40646          22068          1.167406e-11 
       258   293.41367          63011   0              0              40555          22456          1.1653462e-11
       259   296.98001          63352   0              0              40527          22825          1.1663077e-11
       260   300.76723          63682   0              0              40460          23222          1.1644847e-11
       261   304.43538          63986   0              0              40330          23656          1.1646149e-11
       262   308.09022          64344   0              0              40272          24072          1.1655982e-11
       263   311.77433          64663   0              0              40188          24475          1.1649972e-11
       264   315.39175          65012   0              0              40069          24943          1.165576e-11 
       265   319.13016          65372   0              0              39936          25436          1.1657032e-11
       266   322.92253          65683   0              0              39795          25888          1.1661617e-11
       267   326.60692          66019   0              0              39668          26351          1.1670211e-11
       268   330.42881          66342   0              0              39544          26798          1.1692061e-11
       269   334.3092           66622   0              0              39324          27298          1.167016e-11 
       270   338.37587          66957   0              0              39177          27780          1.1656186e-11
       271   342.26068          67283   0              0              39034          28249          1.1659079e-11
       272   345.98576          67605   0              0              38873          28732          1.168833e-11 
       273   349.96654          67862   0              0              38665          29197          1.1664872e-11
       274   353.89632          68218   0              0              38532          29686          1.1687503e-11
       275   357.74538          68587   0              0              38449          30138          1.1707002e-11
       276   361.68028          68939   0              0              38364          30575          1.1711782e-11
       277   365.84             69155   0              0              38106          31049          1.1691834e-11
       278   369.85873          69564   0              0              38022          31542          1.1714857e-11
       279   373.79295          69893   0              0              37903          31990          1.1753365e-11
       280   378.00748          70122   0              0              37676          32446          1.1738313e-11
       281   382.22207          70434   0              0              37560          32874          1.173794e-11 
       282   386.26765          70814   0              0              37523          33291          1.1755858e-11
       283   390.35708          71083   0              0              37329          33754          1.1751432e-11
       284   394.51308          71414   0              0              37203          34211          1.1767222e-11
       285   398.6378           71759   0              0              37150          34609          1.1787323e-11
       286   402.80513          72142   0              0              37107          35035          1.1830087e-11
       287   407.08154          72387   0              0              36962          35425          1.1808332e-11
       288   411.3754           72628   0              0              36817          35811          1.1800553e-11
       289   415.6578           72939   0              0              36736          36203          1.1821403e-11
       290   420.16779          73323   0              0              36696          36627          1.1847032e-11
       291   424.53633          73597   0              0              36574          37023          1.1830044e-11
       292   428.88334          73933   0              0              36582          37351          1.1854056e-11
       293   433.24577          74211   0              0              36472          37739          1.1872458e-11
       294   437.73606          74435   0              0              36330          38105          1.1851843e-11
       295   442.17848          74802   0              0              36350          38452          1.1879511e-11
       296   446.64194          75079   0              0              36265          38814          1.1882561e-11
       297   451.12496          75376   0              0              36209          39167          1.1883376e-11
       298   455.64916          75628   0              0              36109          39519          1.1866498e-11
       299   460.11245          75959   0              0              36093          39866          1.1892848e-11
       300   464.80436          76270   0              0              36069          40201          1.1915758e-11
       301   469.31934          76575   0              0              36032          40543          1.1937012e-11
       302   473.92676          76826   0              0              35956          40870          1.1937286e-11
       303   478.55887          77120   0              0              35896          41224          1.1945953e-11
       304   483.2115           77527   0              0              35959          41568          1.1971042e-11
       305   487.91463          77773   0              0              35876          41897          1.1969287e-11
       306   492.64152          77995   0              0              35776          42219          1.196011e-11 
       307   497.35094          78302   0              0              35796          42506          1.199267e-11 
       308   502.08672          78632   0              0              35845          42787          1.1987506e-11
       309   506.86913          78968   0              0              35874          43094          1.2007205e-11
       310   511.85048          79232   0              0              35831          43401          1.2034337e-11
       311   516.72314          79532   0              0              35796          43736          1.2026988e-11
       312   521.55877          79837   0              0              35781          44056          1.2055869e-11
       313   526.46253          80118   0              0              35764          44354          1.2047887e-11
       314   531.35224          80476   0              0              35788          44688          1.2079816e-11
       315   536.39517          80753   0              0              35749          45004          1.2075261e-11
       316   541.34709          81004   0              0              35647          45357          1.2083367e-11
       317   546.38457          81190   0              0              35547          45643          1.2073778e-11
       318   551.40131          81492   0              0              35549          45943          1.2092329e-11
       319   556.48217          81849   0              0              35587          46262          1.2108688e-11
       320   561.82533          82099   0              0              35550          46549          1.2091198e-11
Loop time of 561.826 on 16 procs for 320 steps with 82099 atoms

97.7% CPU use with 16 MPI tasks x 1 OpenMP threads

MPI task timing breakdown:
Section |  min time  |  avg time  |  max time  |%varavg| %total
---------------------------------------------------------------
Pair    | 122.51     | 160.63     | 226.23     | 274.7 | 28.59
Neigh   | 22.19      | 39.635     | 78.555     | 323.2 |  7.05
Comm    | 73.567     | 92.355     | 118.77     | 167.3 | 16.44
Output  | 3.1746     | 3.1747     | 3.175      |   0.0 |  0.57
Modify  | 131.92     | 246.37     | 315.21     | 409.7 | 43.85
Other   |            | 19.66      |            |       |  3.50

Nlocal:        5131.19 ave        8266 max        3784 min
Histogram: 6 6 0 0 0 0 0 0 0 4
Nghost:        4087.56 ave        6336 max        2963 min
Histogram: 4 6 2 0 0 0 0 0 0 4
Neighs:        42052.1 ave       50968 max       35915 min
Histogram: 4 0 4 4 0 0 0 0 0 4

Total # of neighbors = 672833
Ave neighs/atom = 8.1953861
Neighbor list builds = 4923
Dangerous builds = 433

Total wall time: 0:09:23
