LAMMPS (23 Jun 2022 - Update 4)
  using 1 OpenMP thread(s) per MPI task
package omp 0
using multi-threaded neighbor list subroutines
#-----------------------------------------------------------------------------#
#                NUFEB Simulation: Heterotrophic Biofilm Growth               #
#-----------------------------------------------------------------------------#


#-----------------------------System Settings---------------------------------#

units si                                    # using si units (m, s, kg)
atom_style      coccus                      # using nufeb coccus atom style
atom_modify     map array sort 10 0         # map array - find atoms using indices
		                            # sort every 10

boundary        pp pp ff                    # periodic boundaries in x and y
                                            # fixed boundary in z

newton          off                         # forces between local and ghost
                                            # atoms are computed in each
					     # processor without communication

processors      * * 1                       # processor grid

comm_modify     vel yes                     # communicate velocities for ghost atoms

read_data       atom_ch.in	             # read atom.in file which defines domain size
Reading data file ...
  orthogonal box = (0 0 0) to (6e-05 6e-05 6e-05)
  4 by 4 by 1 MPI processor grid
  reading atoms ...
  150 atoms
  read_data CPU = 0.070 seconds
                                            # and initial atoms


#--------------------Microbes and Functional Groups-------------------------#

group           CROSS1   type 1               # assign type 1,2 atoms to CROSS group
50 atoms in group CROSS1
group           CROSS2   type 2
50 atoms in group CROSS2
group		CHEATER  type 3
50 atoms in group CHEATER
group           dead     type 4
0 atoms in group dead

neighbor        5e-7 bin                   # setting neighbour skin distance and style

neigh_modify    check yes                  # rebuild neighbour list if any atom
                                           # had moved more than half the skin distance


#--------------------------Mesh Grid and Substrates--------------------------#

# defining grid sytle, substrate names, and grid size
grid_style      nufeb/chemostat 3 sub metab1 metab2 5e-6

# set diffusion boundary conditions and initial concentrations (liquid:kg/m3)
grid_modify     set sub      pp pp nd  1.8e-4
No /omp style for force computation currently active
grid_modify     set metab1   pp pp nd  1e-4
No /omp style for force computation currently active
grid_modify     set metab2   pp pp nd  1e-4
No /omp style for force computation currently active


#--------------------------Biological Processes-------------------------------#

# heterotrophs growth
fix growth_cross1 CROSS1 nufeb/growth/cross1 sub 3.5e-5 metab2 4e-3 metab1 growth 0.009 yield 0.6 decay 2.6e-6 metab1_exp 20

fix growth_cross2 CROSS2 nufeb/growth/cross2 sub 3.5e-5 metab1 4e-3 metab2 growth 0.009 yield 0.6 decay 2.6e-6 metab2_exp 20

fix growth_cheater CHEATER nufeb/growth/cheater sub 3.5e-5 metab1 1e-3 metab2 1e-3 growth 0.009 yield 0.6 decay 2.6e-6
# heterotrophs division, division diameter: 1.36e-6
fix div1 CROSS1 nufeb/division/coccus 1.36e-6 139
fix div2 CROSS2 nufeb/division/coccus 1.36e-6 250
fix div3 CHEATER nufeb/division/coccus 1.36e-6 433

fix death1 CROSS1 nufeb/death/diameter dead 5.43e-7
fix death2 CROSS2 nufeb/death/diameter dead 5.43e-7
fix death3 CHEATER nufeb/death/diameter dead 5.43e-7

#---------------------------Physical Processes--------------------------------#

pair_style  gran/hooke/history 1e-4 NULL 1e-5 NULL 0.0 0    # pairwise interaction
pair_coeff  * *                                             # between atoms

# pairwise interaction between z-wall and atoms
fix wall all wall/gran hooke/history 1e-3 NULL 1e-4 NULL 0 0 zplane 0.0 1e-04

fix vis all viscous 1e-5                                    # viscous damping force

fix grav all gravity 9.81 vector 0.0 0.0 -1.0

fix nve all nve/limit 1e-7                                  # NVE integration with
                                                            # maximum distance limit


#---------------------------Post-Physical Processes---------------------------#

fix coeff_sub all nufeb/diffusion_coeff sub ratio 0.8       # defining diffusion coeff in the biofilm
fix coeff_metab1 all nufeb/diffusion_coeff metab1 ratio 0.8    # region is 80% of the value in liquid
fix coeff_metab2 all nufeb/diffusion_coeff metab2 ratio 0.8

#---------------------------Chemical Processes---------------------------------#

fix diff_sub all nufeb/diffusion_reaction sub 1e-9        # diffusion reaction for updating
fix diff_metab1 all nufeb/diffusion_reaction metab1 4e-9     # distribusion of substrate concentration
fix diff_metab2 all nufeb/diffusion_reaction metab2 4e-9

#--------------------------Computations and Outputs----------------------------#

variable mass equal "mass(all)"                             # total mass
variable ncross1 equal "count(CROSS1)"                      # total # of CROSS1
variable ncross2 equal "count(CROSS2)"                      # total # of CROSS2
variable ncheater equal "count(CHEATER)"
variable ndead equal "count(dead)"

shell mkdir vtk_NEPS_ch                                            # dump vtk files to /vtk folder
dump du1 all vtk 10 vtk_NEPS_ch/dump*.vtu id type diameter         # require build NUFEB with vtk option
dump du2 all grid/vtk 10 vtk_NEPS_ch/dump_%_*.vti con rea den gro

#dump du3 all movie 10 movie.avi type diameter view 80 60    # dump video
#dump_modify du3 acolor 1 blue acolor 2 lightgrey framerate 10


                                                            # dump hdf5 files to /hdf5 folder
#shell mkdir hdf5                                           # require build NUFEB with hdf5 option
#dump du3 all nufeb/hdf5 10 dump.h5 id type x y z vx vy vz fx fy fz radius conc reac

thermo_style custom step cpu atoms v_ncross1 v_ncross2 v_ncheater v_ndead v_mass     # screen and log outputs
thermo 1
thermo_modify   lost ignore

#-----------------------------------Run----------------------------------------#

# issue run command, define timesteps for physical (pairdt) and chemical (diffdt) processes
run_style nufeb diffdt 1e-4 difftol 1e-6 pairdt 1e-2 pairtol 1 pairmax 1000 diffmax 5000

timestep 12000                                               # define biological timesteps (1000s)

run 320                                                    # growing biofilm for 900x1000s
Generated 0 of 6 mixed pair_coeff terms from geometric mixing rule
Last active /omp style is pair_style gran/hooke/history/omp
Neighbor list info ...
  update every 1 steps, delay 10 steps, check yes
  max neighbors/atom: 2000, page size: 100000
  master list distance cutoff = 2.49e-06
  ghost atom cutoff = 2.49e-06
  binsize = 1.245e-06, bins = 49 49 49
  1 neighbor lists, perpetual/occasional/extra = 1 0 0
  (1) pair gran/hooke/history/omp, perpetual
      attributes: half, newton off, size, history, omp
      pair build: half/size/bin/newtoff/omp
      stencil: full/bin/3d
      bin: standard
Per MPI rank memory allocation (min/avg/max) = 11.02 | 11.02 | 11.02 Mbytes
   Step          CPU          Atoms      v_ncross1      v_ncross2      v_ncheater      v_ndead         v_mass    
         0   0                    150   50             50             50             0              1.3295396e-13
         1   0.39292077           273   96             91             86             0              1.9616795e-13
         2   0.74771753           436   149            150            137            0              2.2439767e-13
         3   1.0566963            540   167            196            177            0              2.4607473e-13
         4   1.3511563            592   185            213            194            0              2.6509286e-13
         5   1.5541579            633   203            225            205            0              2.8270568e-13
         6   1.7206814            673   215            238            220            0              2.995339e-13 
         7   1.8451634            707   227            249            231            0              3.1567504e-13
         8   1.9738877            751   234            263            254            0              3.3107732e-13
         9   2.0936933            794   245            276            273            0              3.4572149e-13
        10   2.231481             820   250            282            288            0              3.5941602e-13
        11   2.3320538            856   262            291            303            0              3.7240806e-13
        12   2.4360483            878   267            297            314            0              3.8486992e-13
        13   2.5209465            902   272            303            327            0              3.9651756e-13
        14   2.6197836            927   282            307            338            0              4.0748293e-13
        15   2.7144835            958   290            316            352            0              4.1809718e-13
        16   2.8005463            991   298            320            373            0              4.2818767e-13
        17   2.9027339           1012   300            326            386            0              4.3782488e-13
        18   2.9896714           1033   306            330            397            0              4.4710037e-13
        19   3.0732151           1056   314            334            408            0              4.5596166e-13
        20   3.1657198           1078   320            339            419            0              4.6437243e-13
        21   3.250121            1099   322            343            434            0              4.7226286e-13
        22   3.3577589           1120   325            349            446            0              4.79928e-13  
        23   3.4336796           1137   328            351            458            0              4.8746233e-13
        24   3.5415756           1160   332            351            477            0              4.9463104e-13
        25   3.6396775           1184   339            355            490            0              5.0160057e-13
        26   3.7161655           1205   342            361            502            0              5.0839442e-13
        27   3.8456481           1225   345            363            517            0              5.1491844e-13
        28   3.9730691           1243   348            366            529            0              5.2169679e-13
        29   4.1110248           1266   353            367            546            0              5.2850055e-13
        30   4.2843855           1284   357            368            559            0              5.3537721e-13
        31   4.4450945           1313   364            369            580            0              5.4245463e-13
        32   4.6032643           1339   368            371            600            0              5.4984132e-13
        33   4.766986            1360   368            371            621            0              5.5735978e-13
        34   4.9315356           1390   372            373            645            0              5.650241e-13 
        35   5.1088874           1409   374            374            661            0              5.7285761e-13
        36   5.2953564           1438   378            374            686            0              5.8094827e-13
        37   5.4279715           1468   379            375            714            0              5.8925412e-13
        38   5.5836441           1498   382            375            741            0              5.9748349e-13
        39   5.7156482           1528   384            376            768            0              6.057773e-13 
        40   5.8861696           1549   386            376            787            0              6.1401799e-13
        41   6.0029451           1573   387            377            809            0              6.2222628e-13
        42   6.0918635           1603   389            378            836            0              6.3029112e-13
        43   6.1760036           1639   390            378            871            0              6.380702e-13 
        44   6.2657706           1666   392            378            896            0              6.4558511e-13
        45   6.3517542           1691   393            380            918            0              6.5284641e-13
        46   6.4358614           1707   393            380            934            0              6.5988304e-13
        47   6.5402431           1724   393            381            950            0              6.6664492e-13
        48   6.6276499           1744   393            381            970            0              6.7334657e-13
        49   6.7201094           1763   393            381            989            0              6.7971396e-13
        50   6.861285            1787   393            382            1012           0              6.8586044e-13
        51   7.00892             1817   394            382            1041           0              6.920673e-13 
        52   7.1927575           1846   397            383            1066           0              6.9843383e-13
        53   7.3780029           1866   399            384            1081           2              7.0504367e-13
        54   7.5671683           1890   399            384            1104           3              7.1201601e-13
        55   7.7844749           1912   400            384            1121           7              7.1913137e-13
        56   7.995492            1947   401            384            1153           9              7.267651e-13 
        57   8.2011951           1969   401            384            1170           14             7.3464635e-13
        58   8.3868224           1997   401            384            1193           19             7.4271439e-13
        59   8.573073            2032   402            384            1222           24             7.5099498e-13
        60   8.7929271           2055   403            384            1234           34             7.5924331e-13
        61   9.0188101           2086   404            385            1260           37             7.6758496e-13
        62   9.2154377           2121   404            385            1293           39             7.7618713e-13
        63   9.4218276           2159   407            385            1320           47             7.8478873e-13
        64   9.6250247           2197   408            386            1351           52             7.9358084e-13
        65   9.8342017           2227   408            387            1373           59             8.0235098e-13
        66   10.064314           2254   408            387            1395           64             8.1142308e-13
        67   10.278173           2298   408            387            1426           77             8.2077271e-13
        68   10.513276           2332   409            387            1449           87             8.3005031e-13
        69   10.778833           2370   412            387            1474           97             8.3973134e-13
        70   11.082589           2409   412            387            1502           108            8.499679e-13 
        71   11.341763           2441   412            387            1526           116            8.606433e-13 
        72   11.601429           2501   413            387            1578           123            8.7155251e-13
        73   11.8523             2539   413            387            1611           128            8.8272949e-13
        74   12.075811           2581   415            387            1644           135            8.9395927e-13
        75   12.287393           2624   415            387            1680           142            9.0504232e-13
        76   12.471779           2663   416            387            1713           147            9.1597677e-13
        77   12.663713           2712   417            387            1756           152            9.265031e-13 
        78   12.843269           2758   417            387            1793           161            9.3690605e-13
        79   13.028044           2803   417            387            1830           169            9.4708571e-13
        80   13.270635           2841   419            387            1859           176            9.5720876e-13
        81   13.571047           2886   419            387            1899           181            9.6752474e-13
        82   13.883949           2927   419            387            1934           187            9.7865465e-13
        83   14.244422           2981   418            387            1979           197            9.9064975e-13
        84   14.592203           3041   418            387            2025           211            1.0035408e-12
        85   14.96535            3091   418            387            2069           217            1.0173797e-12
        86   15.342296           3148   418            387            2110           233            1.0322317e-12
        87   15.727431           3212   418            387            2160           247            1.0482756e-12
        88   16.106611           3289   418            386            2227           258            1.0653286e-12
        89   16.467363           3349   418            386            2275           270            1.0828093e-12
        90   16.822005           3434   418            386            2344           286            1.1008182e-12
        91   17.144799           3501   418            386            2397           300            1.1187406e-12
        92   17.451477           3593   418            385            2476           314            1.1367083e-12
        93   17.760436           3666   417            385            2539           325            1.1546574e-12
        94   18.062966           3739   416            385            2607           331            1.1727337e-12
        95   18.421221           3823   416            385            2682           340            1.1903469e-12
        96   18.76355            3918   414            385            2767           352            1.2083791e-12
        97   19.136496           4009   414            385            2846           364            1.226793e-12 
        98   19.524514           4082   414            385            2914           369            1.2455226e-12
        99   19.907918           4169   412            385            2998           374            1.2650705e-12
       100   21.70911            4258   411            384            3080           383            1.2848701e-12
       101   22.100932           4357   411            384            3174           388            1.3051931e-12
       102   22.481607           4442   411            384            3257           390            1.3258858e-12
       103   22.845908           4535   411            384            3347           393            1.3466154e-12
       104   23.192093           4628   410            384            3439           395            1.3673915e-12
       105   23.60588            4720   410            383            3530           397            1.3877871e-12
       106   23.943179           4815   410            382            3622           401            1.4077282e-12
       107   24.266642           4901   410            382            3704           405            1.427353e-12 
       108   24.615808           4997   409            381            3798           409            1.446626e-12 
       109   24.988792           5092   408            381            3892           411            1.4656141e-12
       110   25.360835           5185   407            381            3983           414            1.4850171e-12
       111   25.763705           5267   407            381            4064           415            1.5041194e-12
       112   26.172744           5371   406            381            4168           416            1.523678e-12 
       113   26.602768           5444   405            379            4238           422            1.543751e-12 
       114   27.011188           5529   403            379            4316           431            1.5648534e-12
       115   27.416419           5636   403            379            4417           437            1.5864664e-12
       116   27.830932           5736   403            379            4509           445            1.6085489e-12
       117   28.231392           5831   403            379            4597           452            1.6307888e-12
       118   28.611486           5936   402            378            4694           462            1.6529261e-12
       119   28.999952           6040   402            376            4788           474            1.6747896e-12
       120   29.381499           6153   402            376            4892           483            1.6964493e-12
       121   29.801798           6270   402            376            4999           493            1.7177465e-12
       122   30.167524           6373   402            376            5087           508            1.7390413e-12
       123   30.595426           6472   402            376            5174           520            1.7599964e-12
       124   31.040953           6577   402            376            5260           539            1.7814022e-12
       125   31.476244           6697   402            375            5371           549            1.803751e-12 
       126   31.924661           6808   402            375            5468           563            1.8266968e-12
       127   32.358059           6915   402            374            5550           589            1.8509961e-12
       128   32.794232           7012   402            373            5621           616            1.8760507e-12
       129   33.225721           7149   402            373            5730           644            1.9016678e-12
       130   33.682082           7264   402            373            5813           676            1.9279779e-12
       131   34.137626           7393   402            373            5912           706            1.9543772e-12
       132   34.560995           7511   402            373            6008           728            1.9811094e-12
       133   34.991445           7637   402            372            6105           758            2.0078017e-12
       134   35.442498           7788   401            372            6217           798            2.0341374e-12
       135   35.896696           7923   401            372            6313           837            2.0607791e-12
       136   36.347536           8061   401            372            6414           874            2.087726e-12 
       137   36.818181           8204   401            372            6509           922            2.1158734e-12
       138   37.28114            8350   401            372            6606           971            2.1448549e-12
       139   37.740836           8501   401            372            6684           1044           2.1751196e-12
       140   38.227152           8652   400            372            6766           1114           2.2066694e-12
       141   38.732783           8801   400            372            6852           1177           2.239074e-12 
       142   39.207802           8956   399            372            6937           1248           2.2724363e-12
       143   39.671647           9108   399            372            7024           1313           2.306507e-12 
       144   40.145781           9263   398            372            7103           1390           2.3407195e-12
       145   40.656011           9443   398            371            7231           1443           2.3749914e-12
       146   41.150863           9595   398            370            7331           1496           2.4095103e-12
       147   41.660378           9772   398            369            7443           1562           2.4440433e-12
       148   42.177125           9944   398            369            7553           1624           2.4792078e-12
       149   42.714395          10128   398            369            7677           1684           2.5157481e-12
       150   43.287207          10306   398            369            7785           1754           2.5535013e-12
       151   43.834899          10479   398            369            7888           1824           2.5935643e-12
       152   44.386914          10676   398            369            8031           1878           2.6350125e-12
       153   44.95657           10863   398            369            8153           1943           2.6781588e-12
       154   45.527049          11068   398            368            8284           2018           2.7226935e-12
       155   46.103273          11273   398            368            8422           2085           2.7679546e-12
       156   46.707662          11504   398            368            8594           2144           2.8141879e-12
       157   47.343958          11697   398            368            8742           2189           2.8614064e-12
       158   47.973378          11912   398            368            8898           2248           2.9107887e-12
       159   48.601294          12126   398            367            9074           2287           2.9621244e-12
       160   49.278571          12356   398            365            9253           2340           3.01583e-12  
       161   49.935125          12620   398            364            9477           2381           3.0731904e-12
       162   50.631202          12870   398            364            9685           2423           3.1335652e-12
       163   51.383413          13125   396            363            9888           2478           3.1958477e-12
       164   52.117798          13403   396            361            10111          2535           3.2606374e-12
       165   52.880205          13672   396            360            10341          2575           3.3268444e-12
       166   53.677261          13919   396            360            10537          2626           3.3943725e-12
       167   54.502281          14233   395            360            10807          2671           3.4667607e-12
       168   55.372171          14543   395            357            11059          2732           3.5481686e-12
       169   56.332298          14863   395            357            11319          2792           3.6374703e-12
       170   57.460702          15238   394            357            11629          2858           3.7354117e-12
       171   58.601339          15631   394            354            11967          2916           3.8424215e-12
       172   59.785804          16041   393            352            12344          2952           3.9586015e-12
       173   61.236694          16475   393            352            12719          3011           4.0815458e-12
       174   62.815726          16903   392            352            13092          3067           4.2064709e-12
       175   64.599525          17350   392            351            13480          3127           4.3361775e-12
       176   66.571835          17813   392            351            13858          3212           4.459728e-12 
       177   68.703684          18278   390            351            14256          3281           4.5803303e-12
       178   70.917408          18679   390            351            14597          3341           4.7091821e-12
       179   73.175321          19181   390            351            15036          3404           4.8350199e-12
       180   75.552253          19658   389            351            15450          3468           4.9783152e-12
       181   77.927576          20172   389            350            15907          3526           5.1125256e-12
       182   80.347348          20678   389            350            16341          3598           5.2517476e-12
       183   82.8236            21197   389            349            16797          3662           5.3897457e-12
       184   85.347111          21727   389            349            17251          3738           5.5375814e-12
       185   87.883086          22238   388            348            17667          3835           5.6859634e-12
       186   90.461981          22776   388            347            18112          3929           5.8376415e-12
       187   93.066354          23373   388            347            18623          4015           5.9885537e-12
       188   95.701964          23999   388            347            19156          4108           6.1640446e-12
       189   98.353587          24652   387            347            19687          4231           6.3346074e-12
       190   101.07514          25254   386            347            20180          4341           6.5069987e-12
       191   103.74323          25899   384            347            20706          4462           6.6835402e-12
       192   106.44531          26571   383            345            21266          4577           6.8570932e-12
       193   109.13376          27200   382            342            21764          4712           7.0195275e-12
       194   111.8191           27942   380            337            22387          4838           7.2158593e-12
       195   114.53471          28664   380            335            22971          4978           7.4128588e-12
       196   117.23116          29398   377            332            23542          5147           7.6251969e-12
       197   119.95851          30105   376            329            24101          5299           7.8061677e-12
       198   122.6688           30883   374            328            24704          5477           8.0147368e-12
       199   125.36482          31661   371            324            25292          5674           8.2206628e-12
       200   128.15881          32466   367            320            25920          5859           8.4419645e-12
       201   130.89439          33191   364            311            26445          6071           8.6229002e-12
       202   133.66487          33978   361            305            27043          6269           8.8136922e-12
       203   136.39336          34832   358            300            27677          6497           9.0276227e-12
       204   139.1193           35587   352            293            28225          6717           9.2391584e-12
       205   141.82825          36450   344            285            28840          6981           9.4374994e-12
       206   144.54301          37219   340            272            29366          7241           9.6376399e-12
       207   147.27953          38051   333            265            29948          7505           9.8399519e-12
       208   150.0076           38887   326            250            30569          7742           1.0020246e-11
       209   152.78395          39618   308            236            31057          8017           1.0196139e-11
       210   155.66924          40419   292            228            31614          8285           1.0368836e-11
       211   158.45557          41199   273            213            32109          8604           1.055176e-11 
       212   161.26277          41877   256            195            32551          8875           1.0680316e-11
       213   164.08532          42610   243            184            33040          9143           1.0819106e-11
       214   166.90843          43273   221            165            33436          9451           1.0938311e-11
       215   169.71586          43918   206            153            33826          9733           1.1050259e-11
       216   172.55241          44696   184            138            34330          10044          1.117378e-11 
       217   175.42754          45309   153            116            34701          10339          1.1273373e-11
       218   178.31443          45911   132            100            35081          10598          1.1351146e-11
       219   181.22338          46420   118            80             35359          10863          1.1403519e-11
       220   184.25993          47030   98             68             35763          11101          1.1480972e-11
       221   187.19075          47570   81             57             36106          11326          1.1542626e-11
       222   190.14127          48181   71             46             36501          11563          1.1591235e-11
       223   193.17552          48713   57             42             36839          11775          1.1636535e-11
       224   196.14275          49225   48             34             37148          11995          1.167484e-11 
       225   199.12871          49677   33             25             37392          12227          1.1702844e-11
       226   202.13651          50218   25             19             37675          12499          1.1745741e-11
       227   205.15643          50730   19             14             37953          12744          1.1773429e-11
       228   208.25202          51186   13             10             38138          13025          1.1786637e-11
       229   211.36828          51673   11             7              38360          13295          1.1805075e-11
       230   214.63031          52119   10             5              38543          13561          1.1829624e-11
       231   217.81519          52603   8              5              38712          13878          1.184296e-11 
       232   221.02836          52972   4              4              38786          14178          1.1819043e-11
       233   224.24424          53407   4              1              38913          14489          1.1822708e-11
       234   227.49536          53914   2              1              39076          14835          1.1843576e-11
       235   230.76175          54373   2              1              39171          15199          1.1843602e-11
       236   234.09191          54678   2              1              39168          15507          1.1831168e-11
       237   237.43679          55035   2              1              39166          15866          1.1814383e-11
       238   240.77107          55540   2              1              39367          16170          1.1838365e-11
       239   244.16383          55929   1              1              39441          16486          1.1824199e-11
       240   247.69222          56300   0              1              39514          16785          1.1799898e-11
       241   251.11582          56740   0              1              39633          17106          1.1821677e-11
       242   254.56613          57031   0              1              39619          17411          1.1805851e-11
       243   258.07985          57479   0              1              39799          17679          1.1824404e-11
       244   261.58454          57846   0              1              39893          17952          1.1805787e-11
       245   265.1354           58249   0              1              40017          18231          1.1804385e-11
       246   268.69562          58622   0              1              40143          18478          1.181056e-11 
       247   272.30991          58936   0              1              40169          18766          1.1788078e-11
       248   275.97399          59387   0              1              40312          19074          1.1776457e-11
       249   279.65841          59781   0              1              40424          19356          1.1784885e-11
       250   283.57596          60086   0              1              40421          19664          1.1786631e-11
       251   287.32574          60486   0              1              40519          19966          1.1780531e-11
       252   291.11318          60820   0              1              40536          20283          1.1786043e-11
       253   295.00775          61271   0              1              40683          20587          1.1784639e-11
       254   298.92846          61579   0              1              40651          20927          1.176652e-11 
       255   302.86006          61962   0              1              40694          21267          1.176722e-11 
       256   306.81522          62367   0              1              40735          21631          1.1780466e-11
       257   310.86408          62542   0              1              40574          21967          1.1747783e-11
       258   314.89385          62966   0              1              40670          22295          1.1748766e-11
       259   318.9625           63244   0              1              40575          22668          1.1728561e-11
       260   323.29057          63677   0              1              40655          23021          1.1726482e-11
       261   327.4431           64038   0              1              40636          23401          1.1734874e-11
       262   331.64969          64323   0              1              40546          23776          1.174548e-11 
       263   335.94649          64649   0              1              40475          24173          1.1733678e-11
       264   340.20878          64952   0              1              40392          24559          1.1728166e-11
       265   344.54534          65291   0              1              40332          24958          1.1715178e-11
       266   348.85672          65655   0              1              40287          25367          1.1702505e-11
       267   353.22953          65950   0              1              40195          25754          1.1711638e-11
       268   357.6305           66295   0              1              40077          26217          1.1699335e-11
       269   362.09728          66610   0              1              39920          26689          1.1703173e-11
       270   366.57125          66985   0              1              39834          27150          1.1736509e-11
       271   370.93542          67361   0              1              39775          27585          1.1758605e-11
       272   375.4767           67646   0              1              39591          28054          1.1717478e-11
       273   380.08064          67940   0              1              39441          28498          1.1723833e-11
       274   384.74046          68186   0              1              39192          28993          1.1713232e-11
       275   389.4713           68529   0              1              39080          29448          1.1716045e-11
       276   394.18006          68864   0              1              38934          29929          1.1716796e-11
       277   398.83651          69182   0              1              38794          30387          1.1716203e-11
       278   403.43496          69566   0              1              38719          30846          1.1754365e-11
       279   408.25582          69842   0              1              38534          31307          1.1755214e-11
       280   413.24848          70115   0              1              38327          31787          1.1737982e-11
       281   418.01926          70396   0              1              38123          32272          1.1756013e-11
       282   422.94968          70726   0              1              37958          32767          1.1752635e-11
       283   427.90954          71098   0              1              37888          33209          1.1756604e-11
       284   432.86213          71398   0              1              37692          33705          1.1763458e-11
       285   437.80167          71710   0              1              37546          34163          1.1781453e-11
       286   442.75181          71998   0              1              37381          34616          1.1799834e-11
       287   447.77195          72324   0              1              37283          35040          1.180856e-11 
       288   452.83055          72669   0              1              37209          35459          1.1822491e-11
       289   457.93645          72989   0              1              37107          35881          1.1822048e-11
       290   463.23527          73279   0              1              36970          36308          1.1841787e-11
       291   468.47355          73477   0              1              36761          36715          1.1846208e-11
       292   473.76868          73846   0              1              36709          37136          1.1873701e-11
       293   479.01738          74264   0              1              36712          37551          1.1881856e-11
       294   484.34116          74596   0              1              36661          37934          1.1904346e-11
       295   489.78235          74851   0              1              36511          38339          1.1894509e-11
       296   495.28893          75084   0              1              36395          38688          1.1883859e-11
       297   500.73907          75333   0              1              36281          39051          1.1896541e-11
       298   506.24301          75736   0              1              36315          39420          1.1918315e-11
       299   511.73726          76103   0              1              36319          39783          1.1945136e-11
       300   517.45811          76325   0              1              36185          40139          1.1934537e-11
       301   523.00842          76641   0              1              36141          40499          1.1954926e-11
       302   528.74249          76909   0              1              36085          40823          1.1937779e-11
       303   534.3863           77220   0              1              36083          41136          1.1968229e-11
       304   540.06132          77516   0              1              36015          41500          1.1982371e-11
       305   545.82143          77767   0              1              35937          41829          1.1963392e-11
       306   551.53515          78106   0              1              35924          42181          1.1997718e-11
       307   557.33327          78428   0              1              35931          42496          1.2005504e-11
       308   563.20053          78713   0              1              35879          42833          1.2014569e-11
       309   569.12791          79063   0              1              35900          43162          1.2028778e-11
       310   575.23046          79308   0              1              35803          43504          1.204833e-11 
       311   581.21737          79571   0              1              35768          43802          1.2036824e-11
       312   587.19377          79903   0              1              35786          44116          1.2058059e-11
       313   593.23768          80180   0              1              35761          44418          1.2063365e-11
       314   599.41353          80480   0              1              35757          44722          1.2071517e-11
       315   605.51393          80797   0              1              35776          45020          1.208765e-11 
       316   611.62947          81075   0              1              35750          45324          1.211237e-11 
       317   617.85383          81378   0              1              35717          45660          1.2108429e-11
       318   624.08162          81684   0              1              35722          45961          1.2104504e-11
       319   630.34149          81935   0              1              35668          46266          1.2123102e-11
       320   636.8126           82179   0              1              35570          46608          1.2128987e-11
Loop time of 636.813 on 16 procs for 320 steps with 82179 atoms

97.3% CPU use with 16 MPI tasks x 1 OpenMP threads

MPI task timing breakdown:
Section |  min time  |  avg time  |  max time  |%varavg| %total
---------------------------------------------------------------
Pair    | 130.92     | 170.09     | 242.26     | 256.0 | 26.71
Neigh   | 19.585     | 37.603     | 86.965     | 325.9 |  5.90
Comm    | 84.638     | 112.35     | 148.97     | 192.7 | 17.64
Output  | 4.0798     | 4.0799     | 4.0803     |   0.0 |  0.64
Modify  | 142.47     | 288.72     | 369.47     | 385.2 | 45.34
Other   |            | 23.97      |            |       |  3.76

Nlocal:        5136.19 ave        9505 max        3650 min
Histogram: 7 1 4 1 1 0 0 0 0 2
Nghost:        4090.12 ave        6798 max        2882 min
Histogram: 7 1 0 4 0 1 0 1 1 1
Neighs:        41052.9 ave       52877 max       33859 min
Histogram: 2 2 4 2 2 0 2 0 0 2

Total # of neighbors = 656847
Ave neighs/atom = 7.9928814
Neighbor list builds = 4782
Dangerous builds = 407

Total wall time: 0:10:38
