LAMMPS (23 Jun 2022 - Update 4)
  using 1 OpenMP thread(s) per MPI task
package omp 0
using multi-threaded neighbor list subroutines
#-----------------------------------------------------------------------------#
#                NUFEB Simulation: Heterotrophic Biofilm Growth               #
#-----------------------------------------------------------------------------#


#-----------------------------System Settings---------------------------------#

units si                                    # using si units (m, s, kg)
atom_style      coccus                      # using nufeb coccus atom style
atom_modify     map array sort 10 0         # map array - find atoms using indices
		                            # sort every 10

boundary        pp pp ff                    # periodic boundaries in x and y
                                            # fixed boundary in z

newton          off                         # forces between local and ghost
                                            # atoms are computed in each
					     # processor without communication

processors      * * 1                       # processor grid

comm_modify     vel yes                     # communicate velocities for ghost atoms

read_data       atom_ch.in	             # read atom.in file which defines domain size
Reading data file ...
  orthogonal box = (0 0 0) to (6e-05 6e-05 6e-05)
  4 by 4 by 1 MPI processor grid
  reading atoms ...
  150 atoms
  read_data CPU = 0.022 seconds
                                            # and initial atoms


#--------------------Microbes and Functional Groups-------------------------#

group           CROSS1   type 1               # assign type 1,2 atoms to CROSS group
50 atoms in group CROSS1
group           CROSS2   type 2
50 atoms in group CROSS2
group		CHEATER  type 3
50 atoms in group CHEATER
group           dead     type 4
0 atoms in group dead

neighbor        5e-7 bin                   # setting neighbour skin distance and style

neigh_modify    check yes                  # rebuild neighbour list if any atom
                                           # had moved more than half the skin distance


#--------------------------Mesh Grid and Substrates--------------------------#

# defining grid sytle, substrate names, and grid size
grid_style      nufeb/chemostat 3 sub metab1 metab2 5e-6

# set diffusion boundary conditions and initial concentrations (liquid:kg/m3)
grid_modify     set sub      pp pp nd  1.8e-4
No /omp style for force computation currently active
grid_modify     set metab1   pp pp nd  1e-4
No /omp style for force computation currently active
grid_modify     set metab2   pp pp nd  1e-4
No /omp style for force computation currently active


#--------------------------Biological Processes-------------------------------#

# heterotrophs growth
fix growth_cross1 CROSS1 nufeb/growth/cross1 sub 3.5e-5 metab2 4e-3 metab1 growth 0.009 yield 0.6 decay 2.6e-6 metab1_exp 20

fix growth_cross2 CROSS2 nufeb/growth/cross2 sub 3.5e-5 metab1 4e-3 metab2 growth 0.009 yield 0.6 decay 2.6e-6 metab2_exp 20

fix growth_cheater CHEATER nufeb/growth/cheater sub 3.5e-5 metab1 1e-3 metab2 1e-3 growth 0.009 yield 0.6 decay 2.6e-6
# heterotrophs division, division diameter: 1.36e-6
fix div1 CROSS1 nufeb/division/coccus 1.36e-6 1003
fix div2 CROSS2 nufeb/division/coccus 1.36e-6 3706
fix div3 CHEATER nufeb/division/coccus 1.36e-6 8209

fix death1 CROSS1 nufeb/death/diameter dead 5.43e-7
fix death2 CROSS2 nufeb/death/diameter dead 5.43e-7
fix death3 CHEATER nufeb/death/diameter dead 5.43e-7

#---------------------------Physical Processes--------------------------------#

pair_style  gran/hooke/history 1e-4 NULL 1e-5 NULL 0.0 0    # pairwise interaction
pair_coeff  * *                                             # between atoms

# pairwise interaction between z-wall and atoms
fix wall all wall/gran hooke/history 1e-3 NULL 1e-4 NULL 0 0 zplane 0.0 1e-04

fix vis all viscous 1e-5                                    # viscous damping force

fix grav all gravity 9.81 vector 0.0 0.0 -1.0

fix nve all nve/limit 1e-7                                  # NVE integration with
                                                            # maximum distance limit


#---------------------------Post-Physical Processes---------------------------#

fix coeff_sub all nufeb/diffusion_coeff sub ratio 0.8       # defining diffusion coeff in the biofilm
fix coeff_metab1 all nufeb/diffusion_coeff metab1 ratio 0.8    # region is 80% of the value in liquid
fix coeff_metab2 all nufeb/diffusion_coeff metab2 ratio 0.8

#---------------------------Chemical Processes---------------------------------#

fix diff_sub all nufeb/diffusion_reaction sub 1e-9        # diffusion reaction for updating
fix diff_metab1 all nufeb/diffusion_reaction metab1 4e-9     # distribusion of substrate concentration
fix diff_metab2 all nufeb/diffusion_reaction metab2 4e-9

#--------------------------Computations and Outputs----------------------------#

variable mass equal "mass(all)"                             # total mass
variable ncross1 equal "count(CROSS1)"                      # total # of CROSS1
variable ncross2 equal "count(CROSS2)"                      # total # of CROSS2
variable ncheater equal "count(CHEATER)"
variable ndead equal "count(dead)"

shell mkdir vtk_NEPS_ch                                            # dump vtk files to /vtk folder
dump du1 all vtk 10 vtk_NEPS_ch/dump*.vtu id type diameter         # require build NUFEB with vtk option
dump du2 all grid/vtk 10 vtk_NEPS_ch/dump_%_*.vti con rea den gro

#dump du3 all movie 10 movie.avi type diameter view 80 60    # dump video
#dump_modify du3 acolor 1 blue acolor 2 lightgrey framerate 10


                                                            # dump hdf5 files to /hdf5 folder
#shell mkdir hdf5                                           # require build NUFEB with hdf5 option
#dump du3 all nufeb/hdf5 10 dump.h5 id type x y z vx vy vz fx fy fz radius conc reac

thermo_style custom step cpu atoms v_ncross1 v_ncross2 v_ncheater v_ndead v_mass     # screen and log outputs
thermo 1
thermo_modify   lost ignore

#-----------------------------------Run----------------------------------------#

# issue run command, define timesteps for physical (pairdt) and chemical (diffdt) processes
run_style nufeb diffdt 1e-4 difftol 1e-6 pairdt 1e-2 pairtol 1 pairmax 1000 diffmax 5000

timestep 12000                                               # define biological timesteps (1000s)

run 320                                                    # growing biofilm for 900x1000s
Generated 0 of 6 mixed pair_coeff terms from geometric mixing rule
Last active /omp style is pair_style gran/hooke/history/omp
Neighbor list info ...
  update every 1 steps, delay 10 steps, check yes
  max neighbors/atom: 2000, page size: 100000
  master list distance cutoff = 2.49e-06
  ghost atom cutoff = 2.49e-06
  binsize = 1.245e-06, bins = 49 49 49
  1 neighbor lists, perpetual/occasional/extra = 1 0 0
  (1) pair gran/hooke/history/omp, perpetual
      attributes: half, newton off, size, history, omp
      pair build: half/size/bin/newtoff/omp
      stencil: full/bin/3d
      bin: standard
Per MPI rank memory allocation (min/avg/max) = 11.02 | 11.02 | 11.02 Mbytes
   Step          CPU          Atoms      v_ncross1      v_ncross2      v_ncheater      v_ndead         v_mass    
         0   0                    150   50             50             50             0              1.3295396e-13
         1   0.37536722           273   96             91             86             0              1.9616795e-13
         2   0.74501935           433   149            149            135            0              2.2385174e-13
         3   1.0620524            543   175            196            172            0              2.4508789e-13
         4   1.3439512            591   189            212            190            0              2.6419126e-13
         5   1.5371104            629   199            225            205            0              2.8174735e-13
         6   1.7023143            658   208            236            214            0              2.983341e-13 
         7   1.8297651            694   219            248            227            0              3.1424058e-13
         8   1.9533379            737   231            263            243            0              3.2937009e-13
         9   2.0663795            773   245            271            257            0              3.4397592e-13
        10   2.1984536            807   252            282            273            0              3.5784048e-13
        11   2.3157064            840   256            290            294            0              3.7121058e-13
        12   2.4297676            875   264            301            310            0              3.8363356e-13
        13   2.5124259            897   271            305            321            0              3.9551227e-13
        14   2.5973349            928   276            314            338            0              4.068904e-13 
        15   2.6823896            953   285            321            347            0              4.1782267e-13
        16   2.7625658            981   292            327            362            0              4.2837736e-13
        17   2.8350428           1010   296            336            378            0              4.3845498e-13
        18   2.9264729           1030   299            343            388            0              4.4802585e-13
        19   2.997213            1060   304            349            407            0              4.571561e-13 
        20   3.0755218           1087   309            353            425            0              4.6580499e-13
        21   3.1486705           1116   315            358            443            0              4.7408272e-13
        22   3.2050152           1134   321            362            451            0              4.8168007e-13
        23   3.2696917           1149   325            366            458            0              4.8891052e-13
        24   3.3229272           1157   326            368            463            0              4.9578011e-13
        25   3.4058341           1179   330            374            475            0              5.0222661e-13
        26   3.463477            1202   334            376            492            0              5.0860581e-13
        27   3.5351814           1229   341            379            509            0              5.1460633e-13
        28   3.623589            1245   343            380            522            0              5.2027441e-13
        29   3.711056            1256   344            380            532            0              5.2579429e-13
        30   3.7879793           1272   346            381            545            0              5.3128024e-13
        31   3.8911829           1292   349            384            559            0              5.3649278e-13
        32   4.019041            1305   351            384            570            0              5.4181414e-13
        33   4.1488928           1321   352            387            582            0              5.4727883e-13
        34   4.2487282           1343   356            387            600            0              5.5288105e-13
        35   4.3910333           1360   359            390            611            0              5.5848004e-13
        36   4.5117918           1389   364            394            631            0              5.6433311e-13
        37   4.6177439           1407   366            395            646            0              5.7026054e-13
        38   4.7351577           1426   369            396            661            0              5.7609304e-13
        39   4.8369894           1450   373            397            680            0              5.8201831e-13
        40   4.955871            1463   373            398            692            0              5.8779644e-13
        41   5.0575119           1482   377            400            705            0              5.9354693e-13
        42   5.1427176           1508   379            403            726            0              5.9925315e-13
        43   5.2197961           1526   380            404            742            0              6.0478487e-13
        44   5.3003932           1551   382            406            763            0              6.1011005e-13
        45   5.3692824           1570   384            408            778            0              6.1528784e-13
        46   5.4584069           1587   386            408            793            0              6.202391e-13 
        47   5.5606668           1606   388            409            809            0              6.2516801e-13
        48   5.6723841           1632   390            409            833            0              6.2996668e-13
        49   5.8257908           1652   393            409            850            0              6.3484598e-13
        50   5.9811623           1675   393            409            873            0              6.3995029e-13
        51   6.1556212           1691   394            410            886            1              6.451851e-13 
        52   6.3629922           1710   394            411            904            1              6.5101272e-13
        53   6.564721            1732   394            412            925            1              6.5717594e-13
        54   6.7715045           1755   396            413            945            1              6.6375357e-13
        55   6.9619338           1782   396            415            970            1              6.7066744e-13
        56   7.1260764           1801   397            415            987            2              6.7775305e-13
        57   7.271443            1828   398            417            1009           4              6.8479814e-13
        58   7.4066948           1849   398            417            1027           7              6.9173349e-13
        59   7.5223798           1870   398            417            1046           9              6.9854255e-13
        60   7.6695465           1896   398            419            1066           13             7.0509604e-13
        61   7.7884301           1919   400            419            1081           19             7.1144858e-13
        62   7.925802            1949   401            419            1104           25             7.1772249e-13
        63   8.0328943           1964   401            419            1111           33             7.2403077e-13
        64   8.1778055           1989   401            419            1135           34             7.3006547e-13
        65   8.3367624           2012   402            419            1147           44             7.3613243e-13
        66   8.5464224           2036   402            419            1165           50             7.4251201e-13
        67   8.7544945           2063   404            419            1184           56             7.4922415e-13
        68   9.0314816           2085   404            419            1202           60             7.5636484e-13
        69   9.3620758           2115   404            419            1225           67             7.6430582e-13
        70   9.6444633           2141   404            420            1240           77             7.7359223e-13
        71   9.9260854           2178   404            420            1267           87             7.8330659e-13
        72   10.160589           2209   405            420            1290           94             7.9359285e-13
        73   10.390352           2251   405            420            1324           102            8.0395844e-13
        74   10.607317           2286   405            420            1353           108            8.1434361e-13
        75   10.802923           2324   405            420            1384           115            8.2470578e-13
        76   10.997678           2365   405            420            1418           122            8.3492267e-13
        77   11.224257           2405   406            420            1451           128            8.4506412e-13
        78   11.460276           2444   406            420            1485           133            8.5549398e-13
        79   11.707547           2488   406            420            1519           143            8.6609767e-13
        80   12.057567           2532   406            420            1558           148            8.7705194e-13
        81   12.386968           2579   406            420            1601           152            8.8854426e-13
        82   12.738658           2635   406            420            1653           156            9.0092181e-13
        83   13.095734           2683   406            420            1695           162            9.1427964e-13
        84   13.461508           2739   406            420            1746           167            9.2842738e-13
        85   13.797155           2788   406            420            1789           173            9.4340703e-13
        86   14.113275           2844   406            420            1838           180            9.5859801e-13
        87   14.422094           2906   406            420            1890           190            9.7397431e-13
        88   14.709528           2963   406            420            1937           200            9.8928558e-13
        89   14.969331           3031   406            420            1998           207            1.0044537e-12
        90   15.292638           3086   406            420            2048           212            1.0193106e-12
        91   15.626022           3143   406            420            2093           224            1.034331e-12 
        92   15.997837           3211   406            420            2156           229            1.0496844e-12
        93   16.34071            3284   405            420            2220           239            1.0655848e-12
        94   16.716051           3353   403            420            2281           249            1.0820159e-12
        95   17.12435            3419   403            420            2337           259            1.0995125e-12
        96   17.504818           3481   403            420            2394           264            1.1181678e-12
        97   17.893431           3565   402            420            2469           274            1.1374387e-12
        98   18.282673           3645   402            420            2542           281            1.1569202e-12
        99   18.663379           3722   402            420            2611           289            1.1766573e-12
       100   19.046243           3819   402            420            2698           299            1.1963599e-12
       101   19.369637           3903   401            420            2775           307            1.2160321e-12
       102   19.711047           3979   401            420            2844           314            1.2354106e-12
       103   20.081792           4054   401            420            2912           321            1.2544648e-12
       104   20.452011           4141   401            420            2994           326            1.2735403e-12
       105   20.84921            4231   401            420            3082           328            1.2929055e-12
       106   21.262712           4307   401            420            3151           335            1.3126499e-12
       107   21.691575           4398   401            420            3239           338            1.3331881e-12
       108   22.116224           4487   401            420            3326           340            1.3549611e-12
       109   22.54526            4580   401            420            3418           341            1.3775648e-12
       110   23.005023           4658   401            420            3491           346            1.4009263e-12
       111   23.441797           4764   401            420            3595           348            1.4244962e-12
       112   23.855352           4861   401            420            3688           352            1.4478437e-12
       113   24.218847           4953   400            420            3778           355            1.4711635e-12
       114   24.591992           5048   400            420            3870           358            1.4936293e-12
       115   24.994418           5170   399            420            3988           363            1.5155733e-12
       116   25.420577           5257   399            420            4069           369            1.5375245e-12
       117   25.868655           5368   399            420            4176           373            1.5596471e-12
       118   26.343731           5471   399            420            4271           381            1.5818622e-12
       119   26.81245            5575   399            420            4365           391            1.6053069e-12
       120   27.314915           5665   399            420            4443           403            1.6289404e-12
       121   27.784052           5761   399            419            4519           424            1.6541323e-12
       122   28.265783           5872   399            419            4614           440            1.6804347e-12
       123   28.712939           5998   399            419            4730           450            1.7075518e-12
       124   29.178865           6107   399            418            4821           469            1.7350204e-12
       125   29.632678           6234   399            418            4927           490            1.7627292e-12
       126   30.090501           6354   399            418            5029           508            1.7903301e-12
       127   30.554996           6474   398            418            5131           527            1.8180077e-12
       128   30.999287           6606   398            418            5242           548            1.845738e-12 
       129   31.467718           6733   398            416            5348           571            1.8734276e-12
       130   31.970074           6836   398            416            5418           604            1.9012321e-12
       131   32.523307           6964   398            416            5515           635            1.9304432e-12
       132   33.037001           7105   398            416            5624           667            1.9613508e-12
       133   33.536059           7251   398            416            5735           702            1.9940885e-12
       134   34.015271           7402   398            416            5852           736            2.0277647e-12
       135   34.514156           7552   398            415            5958           781            2.0625391e-12
       136   35.009998           7702   398            415            6075           814            2.0979754e-12
       137   35.529285           7867   398            415            6202           852            2.1339063e-12
       138   36.042648           8017   397            415            6317           888            2.1702425e-12
       139   36.573968           8180   397            415            6440           928            2.2066949e-12
       140   37.124852           8370   396            415            6591           968            2.2439827e-12
       141   37.655776           8538   396            415            6719           1008           2.281775e-12 
       142   38.199288           8712   395            415            6849           1053           2.3212426e-12
       143   38.729747           8895   395            415            6972           1113           2.3620708e-12
       144   39.267181           9079   395            414            7109           1161           2.4047768e-12
       145   39.881227           9278   395            414            7264           1205           2.4492204e-12
       146   40.483976           9475   395            413            7420           1247           2.495701e-12 
       147   41.111531           9690   395            413            7578           1304           2.5428271e-12
       148   41.739358           9895   395            413            7746           1341           2.5904353e-12
       149   42.369043          10089   395            413            7889           1392           2.6379616e-12
       150   43.045048          10295   395            412            8038           1450           2.6863876e-12
       151   43.73177           10498   395            412            8206           1485           2.735185e-12 
       152   44.441634          10747   395            411            8407           1534           2.7857254e-12
       153   45.167566          10971   395            411            8570           1595           2.8390909e-12
       154   45.919395          11218   395            410            8743           1670           2.8961916e-12
       155   46.688178          11477   395            409            8952           1721           2.9573207e-12
       156   47.451564          11719   395            409            9143           1772           3.0213439e-12
       157   48.298396          11994   395            409            9347           1843           3.087825e-12 
       158   49.165372          12266   395            409            9546           1916           3.1566141e-12
       159   50.047103          12539   395            409            9780           1955           3.2264246e-12
       160   50.959772          12834   395            408            10030          2001           3.2994159e-12
       161   51.898561          13133   395            408            10273          2057           3.3766501e-12
       162   52.872371          13436   395            408            10527          2106           3.4613592e-12
       163   53.943325          13822   395            408            10877          2142           3.5551826e-12
       164   55.0901            14167   395            408            11166          2198           3.6580476e-12
       165   56.400326          14559   395            407            11512          2245           3.7707274e-12
       166   57.839351          14996   395            407            11901          2293           3.8929413e-12
       167   59.439309          15437   395            407            12287          2348           4.0207467e-12
       168   61.201493          15907   395            407            12703          2402           4.1522699e-12
       169   63.232756          16360   394            407            13092          2467           4.2869884e-12
       170   65.334914          16824   394            407            13499          2524           4.4122373e-12
       171   67.507203          17282   394            407            13899          2582           4.5430194e-12
       172   69.904118          17773   394            407            14335          2637           4.6770498e-12
       173   72.32721           18235   394            407            14749          2685           4.804441e-12 
       174   74.802739          18772   394            407            15247          2724           4.9499553e-12
       175   77.313281          19264   394            405            15675          2790           5.0934035e-12
       176   79.872177          19802   394            405            16144          2859           5.2379609e-12
       177   82.498039          20297   394            405            16571          2927           5.378308e-12 
       178   85.158965          20853   392            404            17050          3007           5.5259826e-12
       179   87.838507          21377   392            404            17513          3068           5.6651072e-12
       180   90.61183           21950   392            402            18010          3146           5.8245356e-12
       181   93.367031          22536   392            402            18513          3229           5.9861115e-12
       182   96.129387          23150   390            400            19040          3320           6.1630504e-12
       183   98.909819          23834   390            398            19635          3411           6.332201e-12 
       184   101.65636          24430   390            396            20135          3509           6.5029753e-12
       185   104.38901          25029   390            396            20642          3601           6.6691842e-12
       186   107.13207          25693   390            395            21197          3711           6.8363379e-12
       187   109.89346          26406   389            391            21761          3865           7.0236212e-12
       188   112.66183          27103   386            387            22318          4012           7.2246567e-12
       189   115.4481           27804   385            387            22843          4189           7.4072568e-12
       190   118.27986          28549   383            385            23415          4366           7.6199254e-12
       191   121.05877          29327   381            381            24035          4530           7.8195347e-12
       192   123.86341          30079   380            377            24597          4725           8.0262525e-12
       193   126.65509          30886   378            373            25208          4927           8.2483394e-12
       194   129.46667          31665   378            367            25816          5104           8.4445719e-12
       195   132.27197          32456   377            365            26406          5308           8.6398687e-12
       196   135.06969          33201   376            362            26967          5496           8.8333553e-12
       197   137.8402           33971   375            359            27521          5716           9.0492526e-12
       198   140.65065          34830   371            354            28130          5975           9.249094e-12 
       199   143.46601          35667   366            349            28717          6235           9.4502625e-12
       200   146.37157          36459   363            339            29266          6491           9.6583022e-12
       201   149.1956           37272   358            334            29842          6738           9.8386293e-12
       202   152.02169          38037   354            327            30337          7019           1.0029713e-11
       203   154.87884          38832   352            307            30909          7264           1.0186985e-11
       204   157.7304           39613   339            294            31457          7523           1.0367303e-11
       205   160.60647          40359   327            273            31990          7769           1.0535031e-11
       206   163.5087           41061   309            248            32428          8076           1.0667092e-11
       207   166.39149          41711   294            229            32836          8352           1.0789022e-11
       208   169.30658          42445   276            214            33336          8619           1.0921446e-11
       209   172.2619           43148   245            194            33805          8904           1.1057905e-11
       210   175.34807          43734   228            177            34169          9160           1.1151254e-11
       211   178.35726          44305   197            163            34536          9409           1.1225874e-11
       212   181.31878          44933   172            142            34975          9644           1.1302778e-11
       213   184.32851          45594   144            120            35444          9886           1.1382109e-11
       214   187.35419          46204   128            102            35856          10118          1.1463617e-11
       215   190.42802          46701   102            85             36170          10344          1.1517514e-11
       216   193.48461          47294   89             65             36604          10536          1.1567373e-11
       217   196.58994          47816   76             45             36960          10735          1.1629678e-11
       218   199.7364           48296   66             36             37249          10945          1.1655569e-11
       219   202.89746          48860   50             30             37550          11230          1.1682537e-11
       220   206.23137          49389   43             26             37823          11497          1.1711449e-11
       221   209.4398           49813   36             22             37988          11767          1.1739975e-11
       222   212.66406          50272   30             15             38176          12051          1.1757156e-11
       223   215.95594          50759   26             12             38380          12341          1.1797451e-11
       224   219.25571          51346   20             9              38679          12638          1.1828605e-11
       225   222.58367          51699   17             6              38717          12959          1.1808389e-11
       226   225.94204          52080   16             5              38793          13266          1.1801466e-11
       227   229.31464          52456   12             3              38864          13577          1.1791885e-11
       228   232.73032          52918   10             2              39012          13894          1.1809377e-11
       229   236.20144          53316   8              1              39111          14196          1.1803478e-11
       230   239.79861          53805   5              1              39287          14512          1.1815467e-11
       231   243.33804          54099   3              0              39222          14874          1.1775291e-11
       232   246.88034          54531   1              0              39339          15191          1.1784674e-11
       233   250.45848          54960   0              0              39430          15530          1.1797e-11   
       234   254.09109          55376   0              0              39552          15824          1.1794059e-11
       235   257.69385          55673   0              0              39511          16162          1.1766459e-11
       236   261.3896           56072   0              0              39607          16465          1.177215e-11 
       237   265.14558          56441   0              0              39679          16762          1.1749289e-11
       238   268.89018          56801   0              0              39767          17034          1.1737883e-11
       239   272.69984          57111   0              0              39823          17288          1.1714888e-11
       240   276.67457          57566   0              0              39990          17576          1.1747326e-11
       241   280.56136          57948   0              0              40074          17874          1.1727366e-11
       242   284.46458          58328   0              0              40177          18151          1.1723639e-11
       243   288.43207          58669   0              0              40233          18436          1.1702789e-11
       244   292.44362          59031   0              0              40283          18748          1.1717211e-11
       245   296.4596           59352   0              0              40305          19047          1.170401e-11 
       246   300.52228          59743   0              0              40397          19346          1.1715499e-11
       247   304.60845          60123   0              0              40468          19655          1.1715963e-11
       248   308.75556          60512   0              0              40541          19971          1.17007e-11  
       249   312.9702           60850   0              0              40544          20306          1.1695987e-11
       250   317.39764          61200   0              0              40521          20679          1.1688153e-11
       251   321.70027          61491   0              0              40482          21009          1.1678717e-11
       252   326.01157          61785   0              0              40425          21360          1.1671724e-11
       253   330.44778          62188   0              0              40469          21719          1.1678037e-11
       254   334.88678          62643   0              0              40578          22065          1.1687182e-11
       255   339.36588          63048   0              0              40620          22428          1.1711593e-11
       256   343.87763          63280   0              0              40487          22793          1.1696136e-11
       257   348.43467          63555   0              0              40363          23192          1.1681093e-11
       258   353.03958          63890   0              0              40335          23555          1.1681518e-11
       259   357.66711          64197   0              0              40269          23928          1.1654786e-11
       260   362.50274          64632   0              0              40263          24369          1.1670641e-11
       261   367.19486          64976   0              0              40143          24833          1.1673646e-11
       262   371.93278          65273   0              0              39995          25278          1.1691394e-11
       263   376.58426          65612   0              0              39940          25672          1.1684482e-11
       264   381.48223          65900   0              0              39782          26118          1.1678417e-11
       265   386.35595          66172   0              0              39594          26578          1.1662372e-11
       266   391.29421          66520   0              0              39496          27024          1.1667778e-11
       267   396.26425          66882   0              0              39388          27494          1.1669597e-11
       268   401.07211          67256   0              0              39258          27998          1.168648e-11 
       269   405.9657           67454   0              0              38973          28481          1.1693678e-11
       270   411.25059          67828   0              0              38841          28987          1.168917e-11 
       271   416.42861          68206   0              0              38745          29461          1.1697462e-11
       272   421.49834          68488   0              0              38577          29911          1.1706331e-11
       273   426.60181          68760   0              0              38391          30369          1.1717824e-11
       274   431.76151          69126   0              0              38273          30853          1.1731093e-11
       275   436.91996          69419   0              0              38089          31330          1.1749379e-11
       276   442.32545          69798   0              0              38016          31782          1.1741727e-11
       277   447.57679          70168   0              0              37896          32272          1.1754382e-11
       278   453.00003          70419   0              0              37682          32737          1.1757056e-11
       279   458.32937          70713   0              0              37537          33176          1.17871e-11  
       280   463.91895          70974   0              0              37364          33610          1.1780421e-11
       281   469.53092          71337   0              0              37285          34052          1.1768896e-11
       282   475.00928          71674   0              0              37203          34471          1.1790799e-11
       283   480.52133          72056   0              0              37165          34891          1.1812586e-11
       284   486.09994          72296   0              0              36963          35333          1.1821977e-11
       285   491.72282          72550   0              0              36776          35774          1.1830872e-11
       286   497.39561          72896   0              0              36727          36169          1.1841228e-11
       287   503.25448          73228   0              0              36692          36536          1.1814758e-11
       288   509.02744          73543   0              0              36639          36904          1.1833038e-11
       289   514.79655          73846   0              0              36546          37300          1.1846064e-11
       290   520.76195          74068   0              0              36397          37671          1.1861405e-11
       291   526.64461          74330   0              0              36274          38056          1.1859792e-11
       292   532.59526          74690   0              0              36283          38407          1.1868871e-11
       293   538.52745          75054   0              0              36286          38768          1.1884569e-11
       294   544.53367          75352   0              0              36246          39106          1.1900974e-11
       295   550.6117           75673   0              0              36247          39426          1.1917047e-11
       296   556.6398           75922   0              0              36188          39734          1.1917997e-11
       297   562.76824          76236   0              0              36171          40065          1.1930738e-11
       298   568.94511          76583   0              0              36182          40401          1.1946097e-11
       299   575.18043          76864   0              0              36117          40747          1.19674e-11  
       300   581.61959          77167   0              0              36092          41075          1.1956259e-11
       301   587.89366          77473   0              0              36053          41420          1.1988287e-11
       302   594.23093          77765   0              0              36032          41733          1.2003472e-11
       303   600.57338          78062   0              0              36006          42056          1.2018888e-11
       304   607.01307          78440   0              0              36054          42386          1.2038716e-11
       305   613.49041          78739   0              0              36032          42707          1.2045247e-11
       306   620.03689          79015   0              0              35985          43030          1.2050907e-11
       307   626.59844          79374   0              0              36005          43369          1.2062454e-11
       308   633.19526          79593   0              0              35886          43707          1.2074137e-11
       309   639.88842          79831   0              0              35811          44020          1.2069431e-11
       310   646.82585          80163   0              0              35834          44329          1.2082094e-11
       311   653.63491          80425   0              0              35791          44634          1.2072661e-11
       312   660.42723          80731   0              0              35785          44946          1.2094923e-11
       313   667.32192          80953   0              0              35689          45264          1.2075741e-11
       314   674.1028           81296   0              0              35738          45558          1.2105775e-11
       315   680.92851          81564   0              0              35708          45856          1.2109159e-11
       316   687.86884          81901   0              0              35726          46175          1.213374e-11 
       317   694.73765          82154   0              0              35675          46479          1.214105e-11 
       318   701.76085          82468   0              0              35649          46819          1.2131363e-11
       319   708.90357          82833   0              0              35676          47157          1.2152184e-11
       320   716.28618          83061   0              0              35612          47449          1.2164234e-11
Loop time of 716.286 on 16 procs for 320 steps with 83061 atoms

97.4% CPU use with 16 MPI tasks x 1 OpenMP threads

MPI task timing breakdown:
Section |  min time  |  avg time  |  max time  |%varavg| %total
---------------------------------------------------------------
Pair    | 139.61     | 184.64     | 270.63     | 280.2 | 25.78
Neigh   | 21.942     | 40.572     | 93.146     | 339.3 |  5.66
Comm    | 92.884     | 128.52     | 178.4      | 237.7 | 17.94
Output  | 2.5893     | 2.5894     | 2.5896     |   0.0 |  0.36
Modify  | 164.92     | 331.98     | 424.73     | 421.9 | 46.35
Other   |            | 27.99      |            |       |  3.91

Nlocal:        5191.31 ave        9855 max        3820 min
Histogram: 9 3 0 2 0 0 0 0 0 2
Nghost:        4062.56 ave        6434 max        2953 min
Histogram: 5 3 2 2 0 0 0 2 0 2
Neighs:        42897.4 ave       55188 max       35761 min
Histogram: 2 4 2 2 2 1 1 0 0 2

Total # of neighbors = 686359
Ave neighs/atom = 8.2633125
Neighbor list builds = 4963
Dangerous builds = 413

Total wall time: 0:12:16
