LAMMPS (23 Jun 2022 - Update 4)
  using 1 OpenMP thread(s) per MPI task
package omp 0
using multi-threaded neighbor list subroutines
#-----------------------------------------------------------------------------#
#                NUFEB Simulation: Heterotrophic Biofilm Growth               #
#-----------------------------------------------------------------------------#


#-----------------------------System Settings---------------------------------#

units si                                    # using si units (m, s, kg)
atom_style      coccus                      # using nufeb coccus atom style
atom_modify     map array sort 10 0         # map array - find atoms using indices
		                            # sort every 10

boundary        pp pp ff                    # periodic boundaries in x and y
                                            # fixed boundary in z

newton          off                         # forces between local and ghost
                                            # atoms are computed in each
					     # processor without communication

processors      * * 1                       # processor grid

comm_modify     vel yes                     # communicate velocities for ghost atoms

read_data       atom_ch.in	             # read atom.in file which defines domain size
Reading data file ...
  orthogonal box = (0 0 0) to (6e-05 6e-05 6e-05)
  4 by 4 by 1 MPI processor grid
  reading atoms ...
  150 atoms
  read_data CPU = 0.014 seconds
                                            # and initial atoms


#--------------------Microbes and Functional Groups-------------------------#

group           CROSS1   type 1               # assign type 1,2 atoms to CROSS group
50 atoms in group CROSS1
group           CROSS2   type 2
50 atoms in group CROSS2
group		CHEATER  type 3
50 atoms in group CHEATER
group           dead     type 4
0 atoms in group dead

neighbor        5e-7 bin                   # setting neighbour skin distance and style

neigh_modify    check yes                  # rebuild neighbour list if any atom
                                           # had moved more than half the skin distance


#--------------------------Mesh Grid and Substrates--------------------------#

# defining grid sytle, substrate names, and grid size
grid_style      nufeb/chemostat 3 sub metab1 metab2 5e-6

# set diffusion boundary conditions and initial concentrations (liquid:kg/m3)
grid_modify     set sub      pp pp nd  1.8e-4
No /omp style for force computation currently active
grid_modify     set metab1   pp pp nd  1e-4
No /omp style for force computation currently active
grid_modify     set metab2   pp pp nd  1e-4
No /omp style for force computation currently active


#--------------------------Biological Processes-------------------------------#

# heterotrophs growth
fix growth_cross1 CROSS1 nufeb/growth/cross1 sub 3.5e-5 metab2 4e-3 metab1 growth 0.009 yield 0.6 decay 2.6e-6 metab1_exp 20

fix growth_cross2 CROSS2 nufeb/growth/cross2 sub 3.5e-5 metab1 4e-3 metab2 growth 0.009 yield 0.6 decay 2.6e-6 metab2_exp 20

fix growth_cheater CHEATER nufeb/growth/cheater sub 3.5e-5 metab1 1e-3 metab2 1e-3 growth 0.009 yield 0.6 decay 2.6e-6
# heterotrophs division, division diameter: 1.36e-6
fix div1 CROSS1 nufeb/division/coccus 1.36e-6 1624
fix div2 CROSS2 nufeb/division/coccus 1.36e-6 6190
fix div3 CHEATER nufeb/division/coccus 1.36e-6 13798

fix death1 CROSS1 nufeb/death/diameter dead 5.43e-7
fix death2 CROSS2 nufeb/death/diameter dead 5.43e-7
fix death3 CHEATER nufeb/death/diameter dead 5.43e-7

#---------------------------Physical Processes--------------------------------#

pair_style  gran/hooke/history 1e-4 NULL 1e-5 NULL 0.0 0    # pairwise interaction
pair_coeff  * *                                             # between atoms

# pairwise interaction between z-wall and atoms
fix wall all wall/gran hooke/history 1e-3 NULL 1e-4 NULL 0 0 zplane 0.0 1e-04

fix vis all viscous 1e-5                                    # viscous damping force

fix grav all gravity 9.81 vector 0.0 0.0 -1.0

fix nve all nve/limit 1e-7                                  # NVE integration with
                                                            # maximum distance limit


#---------------------------Post-Physical Processes---------------------------#

fix coeff_sub all nufeb/diffusion_coeff sub ratio 0.8       # defining diffusion coeff in the biofilm
fix coeff_metab1 all nufeb/diffusion_coeff metab1 ratio 0.8    # region is 80% of the value in liquid
fix coeff_metab2 all nufeb/diffusion_coeff metab2 ratio 0.8

#---------------------------Chemical Processes---------------------------------#

fix diff_sub all nufeb/diffusion_reaction sub 1e-9        # diffusion reaction for updating
fix diff_metab1 all nufeb/diffusion_reaction metab1 4e-9     # distribusion of substrate concentration
fix diff_metab2 all nufeb/diffusion_reaction metab2 4e-9

#--------------------------Computations and Outputs----------------------------#

variable mass equal "mass(all)"                             # total mass
variable ncross1 equal "count(CROSS1)"                      # total # of CROSS1
variable ncross2 equal "count(CROSS2)"                      # total # of CROSS2
variable ncheater equal "count(CHEATER)"
variable ndead equal "count(dead)"

shell mkdir vtk_NEPS_ch                                            # dump vtk files to /vtk folder
dump du1 all vtk 10 vtk_NEPS_ch/dump*.vtu id type diameter         # require build NUFEB with vtk option
dump du2 all grid/vtk 10 vtk_NEPS_ch/dump_%_*.vti con rea den gro

#dump du3 all movie 10 movie.avi type diameter view 80 60    # dump video
#dump_modify du3 acolor 1 blue acolor 2 lightgrey framerate 10


                                                            # dump hdf5 files to /hdf5 folder
#shell mkdir hdf5                                           # require build NUFEB with hdf5 option
#dump du3 all nufeb/hdf5 10 dump.h5 id type x y z vx vy vz fx fy fz radius conc reac

thermo_style custom step cpu atoms v_ncross1 v_ncross2 v_ncheater v_ndead v_mass     # screen and log outputs
thermo 1
thermo_modify   lost ignore

#-----------------------------------Run----------------------------------------#

# issue run command, define timesteps for physical (pairdt) and chemical (diffdt) processes
run_style nufeb diffdt 1e-4 difftol 1e-6 pairdt 1e-2 pairtol 1 pairmax 1000 diffmax 5000

timestep 12000                                               # define biological timesteps (1000s)

run 320                                                    # growing biofilm for 900x1000s
Generated 0 of 6 mixed pair_coeff terms from geometric mixing rule
Last active /omp style is pair_style gran/hooke/history/omp
Neighbor list info ...
  update every 1 steps, delay 10 steps, check yes
  max neighbors/atom: 2000, page size: 100000
  master list distance cutoff = 2.49e-06
  ghost atom cutoff = 2.49e-06
  binsize = 1.245e-06, bins = 49 49 49
  1 neighbor lists, perpetual/occasional/extra = 1 0 0
  (1) pair gran/hooke/history/omp, perpetual
      attributes: half, newton off, size, history, omp
      pair build: half/size/bin/newtoff/omp
      stencil: full/bin/3d
      bin: standard
Per MPI rank memory allocation (min/avg/max) = 11.02 | 11.02 | 11.02 Mbytes
   Step          CPU          Atoms      v_ncross1      v_ncross2      v_ncheater      v_ndead         v_mass    
         0   0                    150   50             50             50             0              1.3295396e-13
         1   0.38298669           273   96             91             86             0              1.9616795e-13
         2   0.7591711            433   147            150            136            0              2.2428136e-13
         3   1.0726756            528   168            192            168            0              2.4591545e-13
         4   1.3622526            589   187            212            190            0              2.6496924e-13
         5   1.557864             631   201            225            205            0              2.8261864e-13
         6   1.7153237            667   212            241            214            0              2.993342e-13 
         7   1.8509353            700   221            255            224            0              3.1485911e-13
         8   1.9727796            734   233            265            236            0              3.2944648e-13
         9   2.0756651            770   244            275            251            0              3.4324631e-13
        10   2.1682854            809   254            288            267            0              3.5635989e-13
        11   2.2516323            842   264            297            281            0              3.6891895e-13
        12   2.3450519            871   272            303            296            0              3.8084104e-13
        13   2.4414423            895   277            308            310            0              3.9224158e-13
        14   2.5136442            921   288            312            321            0              4.0294792e-13
        15   2.5961992            945   295            322            328            0              4.1316902e-13
        16   2.6776339            971   300            328            343            0              4.229219e-13 
        17   2.7487243            991   306            332            353            0              4.3223811e-13
        18   2.817893            1018   312            335            371            0              4.4109833e-13
        19   2.8884411           1034   315            337            382            0              4.4955483e-13
        20   2.9620668           1050   320            338            392            0              4.5757786e-13
        21   3.0413582           1074   323            348            403            0              4.6527115e-13
        22   3.1176266           1098   328            353            417            0              4.7269784e-13
        23   3.1872643           1116   333            359            424            0              4.7983291e-13
        24   3.2556538           1132   336            362            434            0              4.8663551e-13
        25   3.3163736           1151   337            363            451            0              4.9318143e-13
        26   3.3925346           1174   341            367            466            0              4.9938677e-13
        27   3.4577692           1192   346            370            476            0              5.0538154e-13
        28   3.5177177           1210   351            371            488            0              5.1101387e-13
        29   3.5760557           1230   354            377            499            0              5.1646085e-13
        30   3.6402077           1253   355            385            513            0              5.2171732e-13
        31   3.7038602           1274   357            390            527            0              5.2670518e-13
        32   3.7556011           1284   360            394            530            0              5.3146701e-13
        33   3.8078681           1299   362            396            541            0              5.3596371e-13
        34   3.8826102           1316   365            398            553            0              5.4027065e-13
        35   3.9315647           1330   368            399            563            0              5.4435669e-13
        36   3.9731672           1344   369            402            573            0              5.4815239e-13
        37   4.0160666           1347   369            403            575            0              5.5174233e-13
        38   4.0586233           1361   371            405            585            0              5.5516094e-13
        39   4.0997175           1374   376            407            591            0              5.5841309e-13
        40   4.1532322           1382   377            408            597            0              5.6153098e-13
        41   4.1919602           1398   380            410            608            0              5.6450414e-13
        42   4.2596878           1409   382            411            616            0              5.6735182e-13
        43   4.3204902           1418   383            413            622            0              5.7022395e-13
        44   4.3771356           1431   385            414            632            0              5.7296733e-13
        45   4.4317472           1437   387            415            635            0              5.7564489e-13
        46   4.4943918           1442   387            416            639            0              5.7827126e-13
        47   4.5657309           1453   388            417            648            0              5.8087019e-13
        48   4.6195937           1461   388            417            656            0              5.8346984e-13
        49   4.6798694           1475   389            418            668            0              5.8601102e-13
        50   4.7709833           1488   389            419            680            0              5.885954e-13 
        51   4.8627771           1498   394            420            684            0              5.9119273e-13
        52   4.9592537           1510   396            420            694            0              5.9400069e-13
        53   5.0680989           1522   398            421            703            0              5.9695261e-13
        54   5.2102521           1533   398            421            714            0              6.0016608e-13
        55   5.3395238           1544   399            421            724            0              6.036941e-13 
        56   5.4752311           1556   399            422            733            2              6.0748294e-13
        57   5.6039892           1576   400            422            748            6              6.1155217e-13
        58   5.7199887           1588   400            422            760            6              6.1586162e-13
        59   5.8422405           1603   400            424            773            6              6.2027987e-13
        60   5.9700397           1617   401            424            784            8              6.2484813e-13
        61   6.0789323           1635   401            424            801            9              6.2950691e-13
        62   6.1675219           1657   401            425            816            15             6.3425816e-13
        63   6.2449513           1669   403            425            821            20             6.3892553e-13
        64   6.3151199           1683   404            425            828            26             6.4350363e-13
        65   6.386936            1693   404            425            831            33             6.4794518e-13
        66   6.4533947           1714   405            425            846            38             6.522888e-13 
        67   6.5214691           1726   405            425            851            45             6.5651199e-13
        68   6.5831134           1747   405            425            869            48             6.6062669e-13
        69   6.6400986           1767   406            426            880            55             6.6460779e-13
        70   6.7125789           1776   408            426            877            65             6.6846439e-13
        71   6.7890263           1789   408            427            884            70             6.7218813e-13
        72   6.8670718           1808   410            428            892            78             6.7593533e-13
        73   6.9041452           1818   410            429            895            84             6.7960729e-13
        74   6.9806378           1826   410            429            898            89             6.830639e-13 
        75   7.0887308           1840   410            429            904            97             6.8657958e-13
        76   7.1978991           1854   410            429            915            100            6.9029135e-13
        77   7.3675598           1866   410            429            924            103            6.9409845e-13
        78   7.5427103           1875   410            429            927            109            6.9838474e-13
        79   7.7502412           1895   411            429            942            113            7.0336337e-13
        80   7.9653305           1913   411            429            958            115            7.0890964e-13
        81   8.1781353           1932   411            429            971            121            7.1483488e-13
        82   8.3626184           1948   411            429            983            125            7.2128181e-13
        83   8.5454523           1970   411            429            999            131            7.2790037e-13
        84   8.7149496           1994   411            429            1019           135            7.3476867e-13
        85   8.8781829           2014   412            429            1036           137            7.4175338e-13
        86   9.0172386           2041   412            429            1061           139            7.4882233e-13
        87   9.1514803           2069   413            429            1083           144            7.5577035e-13
        88   9.2987305           2099   414            429            1109           147            7.6262655e-13
        89   9.4438778           2124   414            429            1131           150            7.6951298e-13
        90   9.5888339           2143   414            429            1142           158            7.763554e-13 
        91   9.7214512           2178   414            429            1172           163            7.8313361e-13
        92   9.8777201           2200   414            429            1192           165            7.8996286e-13
        93   10.109998           2224   414            429            1211           170            7.9687991e-13
        94   10.324467           2263   414            429            1249           171            8.0470776e-13
        95   10.610262           2294   414            429            1272           179            8.1261319e-13
        96   10.851196           2331   414            429            1303           185            8.2148653e-13
        97   11.144697           2368   414            429            1337           188            8.3081888e-13
        98   11.381471           2402   414            429            1368           191            8.4093497e-13
        99   11.642591           2448   414            428            1406           200            8.5127835e-13
       100   11.977285           2489   414            428            1444           203            8.6191815e-13
       101   12.145076           2528   414            428            1481           205            8.7268502e-13
       102   12.350456           2560   414            428            1510           208            8.8316955e-13
       103   12.537931           2605   414            428            1552           211            8.9361332e-13
       104   12.727508           2642   414            427            1587           214            9.0402763e-13
       105   12.906763           2695   414            427            1636           218            9.1436961e-13
       106   13.10254            2737   414            425            1670           228            9.2455106e-13
       107   13.345751           2778   414            425            1700           239            9.3497622e-13
       108   13.62981            2820   414            425            1738           243            9.4583555e-13
       109   13.91403            2870   413            425            1787           245            9.5727719e-13
       110   14.280338           2908   413            424            1824           247            9.6928192e-13
       111   14.620757           2968   413            424            1882           249            9.8230307e-13
       112   14.982055           3019   413            424            1930           252            9.9618376e-13
       113   15.325134           3085   413            423            1991           258            1.0110226e-12
       114   15.661208           3154   413            422            2056           263            1.0265717e-12
       115   16.017831           3204   413            421            2101           269            1.0426448e-12
       116   16.338147           3270   413            420            2164           273            1.0593247e-12
       117   16.632461           3338   413            420            2230           275            1.0761856e-12
       118   16.924301           3402   413            418            2292           279            1.0930059e-12
       119   17.19254            3479   413            418            2367           281            1.1096747e-12
       120   17.506623           3559   413            417            2445           284            1.1262491e-12
       121   17.802842           3626   413            417            2510           286            1.142952e-12 
       122   18.124151           3698   413            416            2581           288            1.1598019e-12
       123   18.448293           3775   413            413            2654           295            1.1768323e-12
       124   18.785723           3842   413            413            2718           298            1.1939694e-12
       125   19.133812           3922   413            413            2797           299            1.2117034e-12
       126   19.493838           4004   413            412            2879           300            1.2297596e-12
       127   19.841894           4087   413            412            2961           301            1.2481938e-12
       128   20.207804           4179   413            412            3050           304            1.2668959e-12
       129   20.57676            4269   413            412            3138           306            1.2862111e-12
       130   20.934345           4342   413            412            3210           307            1.305966e-12 
       131   21.264749           4438   413            411            3302           312            1.3256195e-12
       132   21.584055           4526   413            411            3390           312            1.3451546e-12
       133   21.888788           4619   413            411            3481           314            1.3646073e-12
       134   22.249578           4709   413            411            3569           316            1.3835567e-12
       135   22.557044           4790   413            409            3650           318            1.4019562e-12
       136   22.91842            4872   413            409            3730           320            1.4202639e-12
       137   23.279857           4960   413            409            3816           322            1.4392915e-12
       138   23.6606             5048   413            409            3902           324            1.4581548e-12
       139   24.055364           5143   413            408            3985           337            1.4777399e-12
       140   24.468018           5249   413            408            4087           341            1.4986107e-12
       141   24.858181           5350   413            408            4181           348            1.520027e-12 
       142   25.245961           5439   413            408            4267           351            1.5420219e-12
       143   25.633219           5544   413            408            4364           359            1.5642793e-12
       144   25.992825           5650   413            408            4464           365            1.5867423e-12
       145   26.365687           5746   413            407            4553           373            1.6089971e-12
       146   26.711026           5856   412            407            4655           382            1.6312396e-12
       147   27.086838           5943   412            407            4728           396            1.6529565e-12
       148   27.465606           6049   412            407            4825           405            1.6747739e-12
       149   27.863357           6161   412            407            4921           421            1.6965655e-12
       150   28.291384           6266   412            407            5010           437            1.7186393e-12
       151   28.694229           6373   412            407            5096           458            1.7421283e-12
       152   29.09193            6487   412            406            5194           475            1.7661649e-12
       153   29.498248           6595   412            406            5281           496            1.791316e-12 
       154   29.908887           6719   412            406            5381           520            1.8175115e-12
       155   30.320711           6844   412            406            5475           551            1.8444299e-12
       156   30.734405           6972   412            406            5567           587            1.871943e-12 
       157   31.147336           7093   412            406            5662           613            1.8993917e-12
       158   31.551146           7205   412            406            5746           641            1.926924e-12 
       159   31.977176           7342   412            406            5846           678            1.9541324e-12
       160   32.424311           7470   412            406            5939           713            1.9818942e-12
       161   32.851885           7608   411            406            6041           750            2.0105578e-12
       162   33.277809           7736   411            406            6126           793            2.040692e-12 
       163   33.699166           7886   411            406            6233           836            2.0718738e-12
       164   34.122031           8043   411            406            6329           897            2.1044363e-12
       165   34.550944           8192   411            406            6437           938            2.1384333e-12
       166   34.992198           8361   411            406            6544           1000           2.1732272e-12
       167   35.431232           8517   411            406            6650           1050           2.2087133e-12
       168   35.884025           8683   410            406            6770           1097           2.2444516e-12
       169   36.356303           8845   409            406            6889           1141           2.2803665e-12
       170   36.896268           9016   409            406            7002           1199           2.3164279e-12
       171   37.387736           9189   409            405            7127           1248           2.3533076e-12
       172   37.867357           9368   409            405            7264           1290           2.3915417e-12
       173   38.362759           9540   409            405            7393           1333           2.4309613e-12
       174   38.869737           9732   409            403            7541           1379           2.4724637e-12
       175   39.35645            9918   409            402            7684           1423           2.5157003e-12
       176   39.860934          10109   409            402            7822           1476           2.5604431e-12
       177   40.366975          10315   409            402            7985           1519           2.606378e-12 
       178   40.900673          10513   409            402            8135           1567           2.6524397e-12
       179   41.409961          10709   409            402            8281           1617           2.6992133e-12
       180   42.014117          10926   409            402            8445           1670           2.7470373e-12
       181   42.584622          11125   409            402            8594           1720           2.7958376e-12
       182   43.13782           11343   409            402            8761           1771           2.845796e-12 
       183   43.702616          11555   409            402            8929           1815           2.8982869e-12
       184   44.265105          11794   409            402            9133           1850           2.953552e-12 
       185   44.865044          12039   409            402            9327           1901           3.012199e-12 
       186   45.455152          12305   409            402            9548           1946           3.074444e-12 
       187   46.120656          12540   409            402            9737           1992           3.1396683e-12
       188   46.801171          12808   409            401            9953           2045           3.2083808e-12
       189   47.510647          13088   409            401            10186          2092           3.2805304e-12
       190   48.287628          13383   409            401            10423          2150           3.3555817e-12
       191   49.082932          13697   409            400            10674          2214           3.4339563e-12
       192   49.885483          14021   409            400            10944          2268           3.5181248e-12
       193   50.727954          14354   407            399            11239          2309           3.609022e-12 
       194   51.619383          14721   407            397            11555          2362           3.7071149e-12
       195   52.583023          15107   407            397            11888          2415           3.8154579e-12
       196   53.718468          15508   407            395            12236          2470           3.9337583e-12
       197   55.04043           15941   406            395            12613          2527           4.0618271e-12
       198   56.366654          16392   406            395            12999          2592           4.1956224e-12
       199   58.023483          16891   405            394            13437          2655           4.3326504e-12
       200   59.817136          17394   405            393            13867          2729           4.4674331e-12
       201   61.622061          17843   405            393            14252          2793           4.6042372e-12
       202   63.512282          18332   404            392            14673          2863           4.7369154e-12
       203   65.437295          18809   404            389            15069          2947           4.8755695e-12
       204   67.417572          19269   403            388            15453          3025           5.0074935e-12
       205   69.458552          19806   402            387            15910          3107           5.1659311e-12
       206   71.54312           20342   402            387            16376          3177           5.3204166e-12
       207   73.711062          20922   402            387            16867          3266           5.4787053e-12
       208   75.921431          21457   402            385            17290          3380           5.6184146e-12
       209   78.166993          21978   402            384            17708          3484           5.7706567e-12
       210   80.520168          22592   402            382            18228          3580           5.9340981e-12
       211   82.90671           23229   401            380            18746          3702           6.1082627e-12
       212   85.284584          23849   401            379            19265          3804           6.2803303e-12
       213   87.646291          24458   399            379            19782          3898           6.4437154e-12
       214   90.043026          25095   398            378            20318          4001           6.6216066e-12
       215   92.479008          25763   398            375            20895          4095           6.7981643e-12
       216   94.91511           26435   397            374            21454          4210           6.9776822e-12
       217   97.371576          27111   392            374            22023          4322           7.1555111e-12
       218   99.833189          27863   390            373            22631          4469           7.351515e-12 
       219   102.34415          28597   387            371            23235          4604           7.5381846e-12
       220   104.89344          29301   387            369            23797          4748           7.735458e-12 
       221   107.38719          30077   386            366            24433          4892           7.9612018e-12
       222   109.90311          30819   383            361            25019          5056           8.1554311e-12
       223   112.40861          31675   379            357            25715          5224           8.3573475e-12
       224   114.9249           32486   374            351            26367          5394           8.5790977e-12
       225   117.44708          33185   370            339            26889          5587           8.7530717e-12
       226   119.96735          33993   367            337            27533          5756           8.9647815e-12
       227   122.49793          34783   359            327            28131          5966           9.1648592e-12
       228   125.03359          35591   347            315            28726          6203           9.3669758e-12
       229   127.55284          36419   343            296            29348          6432           9.5571886e-12
       230   130.1787           37237   331            283            29927          6696           9.7444661e-12
       231   132.76106          37967   323            268            30430          6946           9.9484122e-12
       232   135.32258          38824   307            255            31039          7223           1.0131696e-11
       233   137.91232          39607   296            247            31546          7518           1.029726e-11 
       234   140.48279          40334   280            230            31953          7871           1.0471204e-11
       235   143.07894          41106   262            203            32482          8159           1.0597862e-11
       236   145.64072          41784   245            188            32853          8498           1.0744139e-11
       237   148.24884          42415   224            175            33221          8795           1.0859001e-11
       238   150.84963          43215   201            155            33730          9129           1.1003602e-11
       239   153.48197          43849   183            134            34100          9432           1.1091336e-11
       240   156.23011          44455   163            112            34424          9756           1.1184186e-11
       241   158.90235          45122   144            94             34863          10021          1.1284677e-11
       242   161.55898          45658   127            82             35167          10282          1.1369403e-11
       243   164.239            46241   106            66             35530          10539          1.1433282e-11
       244   166.9437           46849   92             53             35951          10753          1.1477837e-11
       245   169.644            47425   76             41             36361          10947          1.1547574e-11
       246   172.35344          47864   68             33             36632          11131          1.1595225e-11
       247   175.07659          48483   48             24             37081          11330          1.1670104e-11
       248   177.83944          49020   35             17             37458          11510          1.1701585e-11
       249   180.64547          49541   20             15             37784          11722          1.1716204e-11
       250   183.58801          50007   15             10             38030          11952          1.1757422e-11
       251   186.43592          50491   10             9              38280          12192          1.1769202e-11
       252   189.26843          50966   9              7              38514          12436          1.1794242e-11
       253   192.13422          51372   3              5              38667          12697          1.1778642e-11
       254   195.00188          51851   2              3              38854          12992          1.1812892e-11
       255   197.92099          52349   1              3              39058          13287          1.181546e-11 
       256   200.83652          52751   1              2              39155          13593          1.1826807e-11
       257   203.78111          53156   1              2              39225          13928          1.1821456e-11
       258   206.71259          53591   0              2              39347          14242          1.1826491e-11
       259   209.70735          54036   0              1              39432          14603          1.182543e-11 
       260   212.83378          54447   0              1              39494          14952          1.1810469e-11
       261   215.85667          54821   0              1              39532          15288          1.1793335e-11
       262   218.89187          55182   0              1              39529          15652          1.1787941e-11
       263   221.97796          55596   0              1              39615          15980          1.1773512e-11
       264   225.09352          55988   0              1              39679          16308          1.1790975e-11
       265   228.19675          56418   0              1              39818          16599          1.1787773e-11
       266   231.32041          56790   0              1              39874          16915          1.180421e-11 
       267   234.50114          57104   0              1              39863          17240          1.1762346e-11
       268   237.67113          57555   0              1              40004          17550          1.1778962e-11
       269   240.87011          57923   0              1              40057          17865          1.175282e-11 
       270   244.22927          58257   0              1              40086          18170          1.1757377e-11
       271   247.49508          58647   0              1              40175          18471          1.1784964e-11
       272   250.78124          58950   0              1              40215          18734          1.1747599e-11
       273   254.06208          59363   0              1              40329          19033          1.1740418e-11
       274   257.34422          59728   0              1              40434          19293          1.1732565e-11
       275   260.67477          60060   0              1              40465          19594          1.1746317e-11
       276   264.06756          60511   0              1              40600          19910          1.1757144e-11
       277   267.44658          60805   0              1              40595          20209          1.173053e-11 
       278   270.8693           61144   0              1              40579          20564          1.1714038e-11
       279   274.25147          61547   0              1              40660          20886          1.1725024e-11
       280   277.94381          61909   0              1              40642          21266          1.1706172e-11
       281   281.41733          62217   0              1              40618          21598          1.1701783e-11
       282   284.91246          62510   0              1              40562          21947          1.1703067e-11
       283   288.4066           62853   0              1              40575          22277          1.1687567e-11
       284   291.92195          63227   0              1              40572          22654          1.1679739e-11
       285   295.4922           63626   0              1              40630          22995          1.1702015e-11
       286   299.08102          63912   0              1              40486          23425          1.1680112e-11
       287   302.7085           64242   0              1              40434          23807          1.1699243e-11
       288   306.35636          64705   0              1              40500          24204          1.1734262e-11
       289   310.01418          64920   0              1              40321          24598          1.1695567e-11
       290   313.84759          65328   0              1              40266          25061          1.1713966e-11
       291   317.54281          65560   0              1              40068          25491          1.1669035e-11
       292   321.24633          65890   0              1              39947          25942          1.1681425e-11
       293   324.86463          66227   0              1              39822          26404          1.1697631e-11
       294   328.6514           66557   0              1              39694          26862          1.1697287e-11
       295   332.45874          66875   0              1              39559          27315          1.168424e-11 
       296   336.18201          67232   0              1              39441          27790          1.1695803e-11
       297   339.93807          67483   0              1              39226          28256          1.1694227e-11
       298   343.67284          67860   0              1              39117          28742          1.1710988e-11
       299   347.61734          68123   0              1              38913          29209          1.1688393e-11
       300   351.58208          68513   0              1              38841          29671          1.1716835e-11
       301   355.42802          68844   0              1              38664          30179          1.1730992e-11
       302   359.48528          69052   0              1              38403          30648          1.1699383e-11
       303   363.33805          69487   0              1              38356          31130          1.175368e-11 
       304   367.33559          69806   0              1              38167          31638          1.1724839e-11
       305   371.25846          70079   0              1              37949          32129          1.1751858e-11
       306   375.21124          70470   0              1              37890          32579          1.1772545e-11
       307   379.24655          70755   0              1              37718          33036          1.1756731e-11
       308   383.26102          71028   0              1              37544          33483          1.1767569e-11
       309   387.37859          71380   0              1              37467          33912          1.1779346e-11
       310   391.5892           71725   0              1              37417          34307          1.1806452e-11
       311   395.72438          72001   0              1              37254          34746          1.1799791e-11
       312   399.88664          72296   0              1              37106          35189          1.1799426e-11
       313   404.1361           72578   0              1              36972          35605          1.1797953e-11
       314   408.32311          72981   0              1              36960          36020          1.1829781e-11
       315   412.56873          73177   0              1              36752          36424          1.1807959e-11
       316   416.80809          73557   0              1              36699          36857          1.1845701e-11
       317   421.10703          73792   0              1              36537          37254          1.1836688e-11
       318   425.33343          74160   0              1              36517          37642          1.1871071e-11
       319   429.61165          74422   0              1              36419          38002          1.1868976e-11
       320   434.14536          74697   0              1              36320          38376          1.1853519e-11
Loop time of 434.146 on 16 procs for 320 steps with 74697 atoms

97.9% CPU use with 16 MPI tasks x 1 OpenMP threads

MPI task timing breakdown:
Section |  min time  |  avg time  |  max time  |%varavg| %total
---------------------------------------------------------------
Pair    | 78.699     | 109.39     | 163.95     | 281.4 | 25.20
Neigh   | 13.727     | 27.045     | 56.784     | 303.0 |  6.23
Comm    | 55.644     | 72.041     | 95.331     | 164.1 | 16.59
Output  | 2.18       | 2.1802     | 2.1804     |   0.0 |  0.50
Modify  | 108.19     | 206.66     | 262.14     | 368.1 | 47.60
Other   |            | 16.84      |            |       |  3.88

Nlocal:        4668.56 ave        7690 max        3332 min
Histogram: 6 6 0 0 0 0 0 0 0 4
Nghost:        3724.94 ave        5941 max        2624 min
Histogram: 5 5 2 0 0 0 0 0 0 4
Neighs:        34745.4 ave       44167 max       28433 min
Histogram: 4 0 2 6 0 0 0 0 0 4

Total # of neighbors = 555926
Ave neighs/atom = 7.442414
Neighbor list builds = 4133
Dangerous builds = 364

Total wall time: 0:07:32
