LAMMPS (23 Jun 2022 - Update 4)
  using 1 OpenMP thread(s) per MPI task
package omp 0
using multi-threaded neighbor list subroutines
#-----------------------------------------------------------------------------#
#                NUFEB Simulation: Heterotrophic Biofilm Growth               #
#-----------------------------------------------------------------------------#


#-----------------------------System Settings---------------------------------#

units si                                    # using si units (m, s, kg)
atom_style      coccus                      # using nufeb coccus atom style
atom_modify     map array sort 10 0         # map array - find atoms using indices
		                            # sort every 10

boundary        pp pp ff                    # periodic boundaries in x and y
                                            # fixed boundary in z

newton          off                         # forces between local and ghost
                                            # atoms are computed in each
					     # processor without communication

processors      * * 1                       # processor grid

comm_modify     vel yes                     # communicate velocities for ghost atoms

read_data       atom_ch.in	             # read atom.in file which defines domain size
Reading data file ...
  orthogonal box = (0 0 0) to (6e-05 6e-05 6e-05)
  4 by 4 by 1 MPI processor grid
  reading atoms ...
  150 atoms
  read_data CPU = 0.011 seconds
                                            # and initial atoms


#--------------------Microbes and Functional Groups-------------------------#

group           CROSS1   type 1               # assign type 1,2 atoms to CROSS group
50 atoms in group CROSS1
group           CROSS2   type 2
50 atoms in group CROSS2
group		CHEATER  type 3
50 atoms in group CHEATER
group           dead     type 4
0 atoms in group dead

neighbor        5e-7 bin                   # setting neighbour skin distance and style

neigh_modify    check yes                  # rebuild neighbour list if any atom
                                           # had moved more than half the skin distance


#--------------------------Mesh Grid and Substrates--------------------------#

# defining grid sytle, substrate names, and grid size
grid_style      nufeb/chemostat 3 sub metab1 metab2 5e-6

# set diffusion boundary conditions and initial concentrations (liquid:kg/m3)
grid_modify     set sub      pp pp nd  1.8e-4
No /omp style for force computation currently active
grid_modify     set metab1   pp pp nd  1e-4
No /omp style for force computation currently active
grid_modify     set metab2   pp pp nd  1e-4
No /omp style for force computation currently active


#--------------------------Biological Processes-------------------------------#

# heterotrophs growth
fix growth_cross1 CROSS1 nufeb/growth/cross1 sub 3.5e-5 metab2 4e-3 metab1 growth 0.009 yield 0.6 decay 2.6e-6 metab1_exp 20

fix growth_cross2 CROSS2 nufeb/growth/cross2 sub 3.5e-5 metab1 4e-3 metab2 growth 0.009 yield 0.6 decay 2.6e-6 metab2_exp 20

fix growth_cheater CHEATER nufeb/growth/cheater sub 3.5e-5 metab1 1e-3 metab2 1e-3 growth 0.009 yield 0.6 decay 2.6e-6
# heterotrophs division, division diameter: 1.36e-6
fix div1 CROSS1 nufeb/division/coccus 1.36e-6 2407
fix div2 CROSS2 nufeb/division/coccus 1.36e-6 9322
fix div3 CHEATER nufeb/division/coccus 1.36e-6 20845

fix death1 CROSS1 nufeb/death/diameter dead 5.43e-7
fix death2 CROSS2 nufeb/death/diameter dead 5.43e-7
fix death3 CHEATER nufeb/death/diameter dead 5.43e-7

#---------------------------Physical Processes--------------------------------#

pair_style  gran/hooke/history 1e-4 NULL 1e-5 NULL 0.0 0    # pairwise interaction
pair_coeff  * *                                             # between atoms

# pairwise interaction between z-wall and atoms
fix wall all wall/gran hooke/history 1e-3 NULL 1e-4 NULL 0 0 zplane 0.0 1e-04

fix vis all viscous 1e-5                                    # viscous damping force

fix grav all gravity 9.81 vector 0.0 0.0 -1.0

fix nve all nve/limit 1e-7                                  # NVE integration with
                                                            # maximum distance limit


#---------------------------Post-Physical Processes---------------------------#

fix coeff_sub all nufeb/diffusion_coeff sub ratio 0.8       # defining diffusion coeff in the biofilm
fix coeff_metab1 all nufeb/diffusion_coeff metab1 ratio 0.8    # region is 80% of the value in liquid
fix coeff_metab2 all nufeb/diffusion_coeff metab2 ratio 0.8

#---------------------------Chemical Processes---------------------------------#

fix diff_sub all nufeb/diffusion_reaction sub 1e-9        # diffusion reaction for updating
fix diff_metab1 all nufeb/diffusion_reaction metab1 4e-9     # distribusion of substrate concentration
fix diff_metab2 all nufeb/diffusion_reaction metab2 4e-9

#--------------------------Computations and Outputs----------------------------#

variable mass equal "mass(all)"                             # total mass
variable ncross1 equal "count(CROSS1)"                      # total # of CROSS1
variable ncross2 equal "count(CROSS2)"                      # total # of CROSS2
variable ncheater equal "count(CHEATER)"
variable ndead equal "count(dead)"

shell mkdir vtk_NEPS_ch                                            # dump vtk files to /vtk folder
dump du1 all vtk 10 vtk_NEPS_ch/dump*.vtu id type diameter         # require build NUFEB with vtk option
dump du2 all grid/vtk 10 vtk_NEPS_ch/dump_%_*.vti con rea den gro

#dump du3 all movie 10 movie.avi type diameter view 80 60    # dump video
#dump_modify du3 acolor 1 blue acolor 2 lightgrey framerate 10


                                                            # dump hdf5 files to /hdf5 folder
#shell mkdir hdf5                                           # require build NUFEB with hdf5 option
#dump du3 all nufeb/hdf5 10 dump.h5 id type x y z vx vy vz fx fy fz radius conc reac

thermo_style custom step cpu atoms v_ncross1 v_ncross2 v_ncheater v_ndead v_mass     # screen and log outputs
thermo 1
thermo_modify   lost ignore

#-----------------------------------Run----------------------------------------#

# issue run command, define timesteps for physical (pairdt) and chemical (diffdt) processes
run_style nufeb diffdt 1e-4 difftol 1e-6 pairdt 1e-2 pairtol 1 pairmax 1000 diffmax 5000

timestep 12000                                               # define biological timesteps (1000s)

run 320                                                    # growing biofilm for 900x1000s
Generated 0 of 6 mixed pair_coeff terms from geometric mixing rule
Last active /omp style is pair_style gran/hooke/history/omp
Neighbor list info ...
  update every 1 steps, delay 10 steps, check yes
  max neighbors/atom: 2000, page size: 100000
  master list distance cutoff = 2.49e-06
  ghost atom cutoff = 2.49e-06
  binsize = 1.245e-06, bins = 49 49 49
  1 neighbor lists, perpetual/occasional/extra = 1 0 0
  (1) pair gran/hooke/history/omp, perpetual
      attributes: half, newton off, size, history, omp
      pair build: half/size/bin/newtoff/omp
      stencil: full/bin/3d
      bin: standard
Per MPI rank memory allocation (min/avg/max) = 11.02 | 11.02 | 11.02 Mbytes
   Step          CPU          Atoms      v_ncross1      v_ncross2      v_ncheater      v_ndead         v_mass    
         0   0                    150   50             50             50             0              1.3295396e-13
         1   0.38295501           273   96             91             86             0              1.9616795e-13
         2   0.76281977           435   149            150            136            0              2.2397685e-13
         3   1.0716897            548   174            196            178            0              2.4567245e-13
         4   1.3650261            592   190            211            191            0              2.6451038e-13
         5   1.561464             632   199            225            208            0              2.8226449e-13
         6   1.7023403            666   210            236            220            0              2.9900782e-13
         7   1.8433256            711   218            261            232            0              3.1495127e-13
         8   1.9661559            743   229            267            247            0              3.3011229e-13
         9   2.0804082            779   241            278            260            0              3.4459426e-13
        10   5.9606185            819   248            289            282            0              3.5834045e-13
        11   6.0736489            848   257            298            293            0              3.7149545e-13
        12   6.1659527            879   269            303            307            0              3.8399586e-13
        13   6.2757615            912   275            315            322            0              3.9588996e-13
        14   6.3806983            941   281            323            337            0              4.0719712e-13
        15   6.476394             962   286            327            349            0              4.1812872e-13
        16   6.5751271            984   291            329            364            0              4.284679e-13 
        17   6.6884076           1015   300            338            377            0              4.3850848e-13
        18   6.8018954           1044   303            347            394            0              4.483305e-13 
        19   6.8987109           1067   307            349            411            0              4.5790178e-13
        20   7.0415279           1084   308            352            424            0              4.6719016e-13
        21   7.1625734           1109   312            354            443            0              4.7636141e-13
        22   7.2937692           1132   316            357            459            0              4.8534494e-13
        23   7.3948816           1156   318            361            477            0              4.9426996e-13
        24   7.5083021           1176   323            366            487            0              5.0292714e-13
        25   7.6215824           1208   330            368            510            0              5.1136608e-13
        26   7.7476243           1236   335            371            530            0              5.1964353e-13
        27   7.8749336           1264   338            374            552            0              5.2788607e-13
        28   7.9803365           1290   341            374            575            0              5.360988e-13 
        29   8.0839185           1306   342            374            590            0              5.4408643e-13
        30   8.2057071           1325   343            376            606            0              5.5190395e-13
        31   8.3192773           1351   347            379            625            0              5.5974293e-13
        32   8.4205778           1378   352            381            645            0              5.6716011e-13
        33   8.5069058           1401   355            382            664            0              5.7439562e-13
        34   8.6335507           1419   358            382            679            0              5.8145305e-13
        35   8.7341574           1443   362            382            699            0              5.8852253e-13
        36   8.8322205           1459   364            382            713            0              5.9541781e-13
        37   8.9610665           1480   364            384            732            0              6.0208618e-13
        38   9.0705962           1514   367            386            761            0              6.0890859e-13
        39   9.1781001           1543   369            389            785            0              6.1552753e-13
        40   9.3032601           1566   372            390            804            0              6.2204384e-13
        41   9.3995038           1587   374            390            823            0              6.2852749e-13
        42   9.4956233           1610   375            393            842            0              6.3486909e-13
        43   9.5818477           1632   378            393            861            0              6.4112884e-13
        44   9.6776736           1653   378            395            880            0              6.4721126e-13
        45   9.7699848           1674   378            398            898            0              6.5321129e-13
        46   9.8574272           1691   378            398            915            0              6.5911292e-13
        47   9.9453733           1707   379            398            930            0              6.6483753e-13
        48   10.024832           1724   379            399            946            0              6.7039375e-13
        49   10.101956           1747   380            399            968            0              6.7580936e-13
        50   10.197665           1765   381            399            985            0              6.8108139e-13
        51   10.287092           1779   382            400            995            2              6.8617501e-13
        52   10.383948           1793   383            400            1008           2              6.9125133e-13
        53   10.483148           1818   385            400            1031           2              6.9621442e-13
        54   10.564934           1844   388            400            1051           5              7.0112288e-13
        55   10.704203           1871   389            401            1075           6              7.0589313e-13
        56   10.843157           1886   389            401            1088           8              7.1091077e-13
        57   10.992353           1906   389            402            1105           10             7.1600808e-13
        58   11.166623           1924   389            402            1121           12             7.2128489e-13
        59   11.343762           1949   391            402            1141           15             7.2690079e-13
        60   11.536687           1973   391            403            1158           21             7.3284557e-13
        61   11.712396           1994   391            403            1175           25             7.389349e-13 
        62   12.045719           2014   391            403            1188           32             7.4516759e-13
        63   12.203353           2042   393            403            1211           35             7.5165045e-13
        64   12.358122           2074   393            403            1236           42             7.5815496e-13
        65   12.51419            2102   394            403            1252           53             7.6463494e-13
        66   12.63961            2141   394            406            1284           57             7.7115854e-13
        67   12.764375           2167   394            406            1303           64             7.7751457e-13
        68   12.891146           2193   395            406            1317           75             7.8374807e-13
        69   13.030859           2216   395            406            1330           85             7.8987897e-13
        70   13.19146            2242   395            406            1351           90             7.959701e-13 
        71   13.32025            2272   396            407            1371           98             8.0210948e-13
        72   13.443591           2294   396            407            1385           106            8.0812806e-13
        73   13.591679           2316   396            407            1397           116            8.1401934e-13
        74   13.759038           2339   396            407            1415           121            8.2011231e-13
        75   14.019223           2372   396            407            1444           125            8.2641102e-13
        76   14.230597           2401   396            407            1462           136            8.3349186e-13
        77   14.482902           2428   396            407            1481           144            8.4071025e-13
        78   14.740064           2459   396            407            1503           153            8.4854651e-13
        79   14.990914           2489   396            407            1525           161            8.5693981e-13
        80   15.282831           2529   396            407            1556           170            8.6575954e-13
        81   15.510144           2564   396            406            1583           179            8.7513571e-13
        82   15.724345           2609   396            403            1621           189            8.8458109e-13
        83   15.909481           2644   396            403            1645           200            8.9399044e-13
        84   16.087972           2687   396            403            1675           213            9.0320084e-13
        85   16.252186           2717   396            403            1696           222            9.1224534e-13
        86   16.408897           2762   396            403            1734           229            9.2108083e-13
        87   16.55076            2804   396            403            1767           238            9.2958302e-13
        88   16.706615           2835   396            403            1792           244            9.3777464e-13
        89   16.857429           2872   395            403            1816           258            9.4591506e-13
        90   17.072249           2909   395            403            1847           264            9.5379684e-13
        91   17.349312           2944   395            402            1878           269            9.6159061e-13
        92   17.628201           2978   395            402            1904           277            9.701925e-13 
        93   17.987848           3012   395            402            1934           281            9.794621e-13 
        94   18.336056           3062   395            402            1978           287            9.8982113e-13
        95   18.684963           3111   394            402            2022           293            1.0013753e-12
        96   19.014985           3170   394            401            2076           299            1.0135102e-12
        97   19.293815           3223   394            401            2127           301            1.0262481e-12
        98   19.621188           3271   395            401            2170           305            1.0391691e-12
        99   19.882753           3333   395            400            2232           306            1.0525407e-12
       100   20.16071            3386   395            400            2278           313            1.0658406e-12
       101   20.411749           3439   395            399            2329           316            1.0790177e-12
       102   20.672643           3501   395            398            2387           321            1.0920511e-12
       103   20.943935           3564   394            398            2445           327            1.1052025e-12
       104   21.276676           3633   394            398            2512           329            1.1184195e-12
       105   21.597112           3697   394            398            2569           336            1.1324129e-12
       106   21.970657           3754   394            398            2621           341            1.1466305e-12
       107   22.333498           3814   394            398            2676           346            1.1618507e-12
       108   22.698573           3893   394            398            2749           352            1.1777855e-12
       109   23.061355           3962   394            398            2808           362            1.1946613e-12
       110   23.451988           4042   394            398            2881           369            1.2119209e-12
       111   23.814424           4118   393            398            2951           376            1.229908e-12 
       112   24.135992           4191   393            398            3012           388            1.248117e-12 
       113   24.476368           4277   393            398            3093           393            1.2660755e-12
       114   24.777849           4355   393            397            3164           401            1.2840629e-12
       115   25.080838           4433   393            397            3238           405            1.3016673e-12
       116   25.384415           4515   393            397            3316           409            1.318915e-12 
       117   25.710406           4596   392            397            3387           420            1.3358249e-12
       118   26.047616           4686   392            397            3468           429            1.3528331e-12
       119   26.365175           4769   392            396            3537           444            1.3698843e-12
       120   26.765332           4849   392            396            3603           458            1.3867609e-12
       121   27.170088           4922   392            396            3663           471            1.4050142e-12
       122   27.563494           5019   392            396            3750           481            1.4237341e-12
       123   27.961071           5102   392            396            3819           495            1.4433628e-12
       124   28.354416           5187   392            396            3891           508            1.4636345e-12
       125   28.736485           5280   392            396            3974           518            1.4847704e-12
       126   29.118997           5367   392            396            4051           528            1.5063433e-12
       127   29.499295           5468   392            396            4135           545            1.52822e-12  
       128   29.8632             5564   392            396            4222           554            1.5499485e-12
       129   30.248985           5676   392            396            4315           573            1.5715065e-12
       130   30.66632            5752   391            396            4382           583            1.5930747e-12
       131   31.063462           5862   391            396            4475           600            1.6146979e-12
       132   31.467703           5954   390            396            4551           617            1.6362894e-12
       133   31.868398           6068   390            396            4644           638            1.6579154e-12
       134   32.293894           6176   390            396            4726           664            1.6797828e-12
       135   32.713813           6261   390            396            4793           682            1.7028214e-12
       136   33.130994           6378   390            396            4897           695            1.7265493e-12
       137   33.54826            6502   390            396            5005           711            1.7512771e-12
       138   33.970536           6603   390            396            5076           741            1.7767134e-12
       139   34.389409           6731   390            396            5181           764            1.8031323e-12
       140   34.838946           6853   390            396            5280           787            1.8305373e-12
       141   35.254583           6979   390            396            5383           810            1.8585765e-12
       142   35.681844           7099   390            396            5481           832            1.8863693e-12
       143   36.121199           7248   390            396            5607           855            1.9142025e-12
       144   36.551865           7414   390            396            5744           884            1.9424701e-12
       145   36.978592           7541   390            396            5846           909            1.9708209e-12
       146   37.409323           7670   390            396            5940           944            1.9990395e-12
       147   37.859338           7807   390            396            6038           983            2.027398e-12 
       148   38.314024           7958   390            396            6140           1032           2.0568125e-12
       149   38.763616           8109   390            396            6248           1075           2.0881376e-12
       150   39.250656           8250   390            396            6355           1109           2.1196889e-12
       151   39.694591           8402   390            396            6453           1163           2.1520457e-12
       152   40.147157           8567   389            396            6572           1210           2.1852049e-12
       153   40.614188           8714   389            396            6676           1253           2.2187235e-12
       154   41.081524           8856   389            396            6767           1304           2.2527209e-12
       155   41.558225           9016   389            396            6887           1344           2.2867871e-12
       156   42.053543           9176   389            396            7016           1375           2.3213498e-12
       157   42.538695           9349   389            396            7139           1425           2.3566516e-12
       158   43.043246           9518   389            396            7259           1474           2.3928886e-12
       159   43.554495           9678   389            396            7375           1518           2.430856e-12 
       160   44.094341           9861   389            396            7510           1566           2.4705404e-12
       161   44.606305          10040   389            396            7643           1612           2.5117831e-12
       162   45.118502          10240   388            396            7797           1659           2.5553048e-12
       163   45.659729          10422   388            396            7938           1700           2.5999281e-12
       164   46.228542          10624   388            396            8079           1761           2.6457818e-12
       165   46.819591          10839   388            396            8261           1794           2.6927974e-12
       166   47.462399          11031   387            395            8410           1839           2.7406802e-12
       167   48.054477          11245   387            394            8558           1906           2.7890583e-12
       168   48.649711          11478   387            394            8741           1956           2.8390917e-12
       169   49.277715          11710   387            394            8923           2006           2.8917397e-12
       170   50.053664          11940   387            394            9110           2049           2.9480678e-12
       171   50.720948          12195   387            394            9309           2105           3.0086624e-12
       172   51.426824          12443   387            394            9490           2172           3.0726568e-12
       173   52.135022          12705   387            394            9692           2232           3.1398848e-12
       174   52.900459          12971   387            394            9907           2283           3.2097689e-12
       175   53.664588          13260   387            394            10148          2331           3.2827983e-12
       176   54.453844          13556   387            393            10397          2379           3.3577878e-12
       177   55.280246          13870   387            393            10658          2432           3.4373028e-12
       178   56.148181          14186   387            393            10924          2482           3.5228384e-12
       179   57.100324          14523   387            393            11217          2526           3.6172551e-12
       180   58.196447          14883   387            393            11544          2559           3.7230512e-12
       181   59.355011          15304   387            391            11919          2607           3.8388062e-12
       182   60.608483          15722   387            391            12276          2668           3.9642884e-12
       183   62.031947          16140   387            391            12634          2728           4.0928079e-12
       184   63.823312          16611   387            391            13042          2791           4.2296802e-12
       185   65.633913          17112   387            391            13484          2850           4.3697818e-12
       186   67.555141          17567   387            391            13882          2907           4.511806e-12 
       187   69.505373          18025   387            391            14266          2981           4.6411062e-12
       188   71.517731          18561   387            390            14741          3043           4.7836205e-12
       189   73.593026          19056   387            390            15148          3131           4.9280698e-12
       190   75.763             19581   386            390            15611          3194           5.0746465e-12
       191   77.957565          20096   386            390            16045          3275           5.2239493e-12
       192   80.177408          20689   386            389            16568          3346           5.3819195e-12
       193   82.436678          21268   386            389            17085          3408           5.5345014e-12
       194   84.731269          21799   386            387            17534          3492           5.6896714e-12
       195   87.099287          22396   386            385            18043          3582           5.8342624e-12
       196   89.495029          23021   386            385            18569          3681           6.0091702e-12
       197   91.938165          23612   385            385            19040          3802           6.1713455e-12
       198   94.395748          24228   385            385            19546          3912           6.3415902e-12
       199   96.882893          24842   385            384            20056          4017           6.5155603e-12
       200   99.43327           25521   385            384            20611          4141           6.6890414e-12
       201   101.95149          26149   385            384            21113          4267           6.8580807e-12
       202   104.47884          26855   384            384            21675          4412           7.0458108e-12
       203   107.00022          27561   384            383            22237          4557           7.2404916e-12
       204   109.53726          28245   384            382            22772          4707           7.4303226e-12
       205   112.07844          28936   384            382            23311          4859           7.6266663e-12
       206   114.60225          29729   382            381            23937          5029           7.8274198e-12
       207   117.14018          30517   381            377            24568          5191           8.0297687e-12
       208   119.65344          31312   379            376            25199          5358           8.253692e-12 
       209   122.17817          32024   379            372            25728          5545           8.4464366e-12
       210   124.82782          32905   376            368            26440          5721           8.6704345e-12
       211   127.40911          33687   373            364            27022          5928           8.868357e-12 
       212   129.95907          34519   369            364            27657          6129           9.0785103e-12
       213   132.49477          35322   363            357            28221          6381           9.314263e-12 
       214   135.04521          36067   362            347            28758          6600           9.4712434e-12
       215   137.59377          36851   359            340            29301          6851           9.6620952e-12
       216   140.13371          37711   351            331            29937          7092           9.8801409e-12
       217   142.71318          38531   338            322            30514          7357           1.0054942e-11
       218   145.27608          39311   325            312            31080          7594           1.0220898e-11
       219   147.84778          40005   316            297            31582          7810           1.0397957e-11
       220   150.51365          40795   306            278            32160          8051           1.0571094e-11
       221   153.12692          41517   289            258            32655          8315           1.0711245e-11
       222   155.74582          42245   273            250            33154          8568           1.0848432e-11
       223   158.35834          42970   257            231            33674          8808           1.0952663e-11
       224   160.99554          43615   240            223            34099          9053           1.1074547e-11
       225   163.58369          44187   217            197            34448          9325           1.1204206e-11
       226   166.22029          44899   199            179            34967          9554           1.1298905e-11
       227   168.91767          45517   178            151            35346          9842           1.1374149e-11
       228   171.56087          46149   158            126            35772          10093          1.1452895e-11
       229   174.23096          46708   134            112            36075          10387          1.1508238e-11
       230   177.05148          47222   116            93             36318          10695          1.1564641e-11
       231   179.77744          47721   98             76             36568          10979          1.1609286e-11
       232   182.52996          48291   84             57             36884          11266          1.1635367e-11
       233   185.28737          48783   64             45             37126          11548          1.168777e-11 
       234   188.0642           49452   49             32             37540          11831          1.1764807e-11
       235   190.87622          49844   37             20             37688          12099          1.1761619e-11
       236   193.70347          50264   29             16             37851          12368          1.1758999e-11
       237   196.534            50741   22             12             38070          12637          1.1776628e-11
       238   199.36332          51261   18             7              38316          12920          1.1801808e-11
       239   202.23051          51652   11             5              38446          13190          1.1783033e-11
       240   205.18244          52037   8              4              38567          13458          1.1798731e-11
       241   208.07379          52457   5              3              38694          13755          1.1803212e-11
       242   210.98882          52992   4              2              38941          14045          1.1813872e-11
       243   213.90669          53379   3              1              39041          14334          1.181045e-11 
       244   216.87249          53753   2              1              39102          14648          1.1809661e-11
       245   219.80026          54082   1              0              39152          14929          1.1787015e-11
       246   222.7863           54524   1              0              39320          15203          1.1794749e-11
       247   225.77828          54937   1              0              39424          15512          1.1791452e-11
       248   228.80154          55310   1              0              39439          15870          1.1782343e-11
       249   231.85021          55728   1              0              39540          16187          1.1800953e-11
       250   235.07069          56086   1              0              39614          16471          1.1781451e-11
       251   238.14113          56518   1              0              39737          16780          1.1770402e-11
       252   241.27524          56865   1              0              39762          17102          1.1759156e-11
       253   244.418            57293   1              0              39894          17398          1.1773724e-11
       254   247.59046          57668   1              0              39951          17716          1.1768161e-11
       255   250.78575          58020   1              0              39998          18021          1.1758051e-11
       256   254.0134           58412   1              0              40096          18315          1.1764033e-11
       257   257.25695          58748   1              0              40094          18653          1.1733786e-11
       258   260.54014          59093   1              0              40152          18940          1.1743393e-11
       259   263.83982          59459   1              0              40226          19232          1.1728949e-11
       260   267.35075          59871   1              0              40307          19563          1.1732295e-11
       261   270.73657          60217   1              0              40383          19833          1.1719623e-11
       262   274.11123          60527   1              0              40408          20118          1.1734157e-11
       263   277.54546          60830   1              0              40409          20420          1.1699888e-11
       264   280.95955          61241   1              0              40518          20722          1.1703308e-11
       265   284.39243          61627   1              0              40590          21036          1.1711231e-11
       266   287.92055          62011   1              0              40650          21360          1.1721941e-11
       267   291.44326          62230   1              0              40558          21671          1.1689869e-11
       268   295.01643          62641   1              0              40585          22055          1.1703745e-11
       269   298.58671          62988   1              0              40553          22434          1.1693559e-11
       270   302.30962          63327   1              0              40527          22799          1.1698653e-11
       271   305.9434           63717   1              0              40570          23146          1.1705379e-11
       272   309.61971          63992   1              0              40439          23552          1.1692902e-11
       273   313.27331          64314   1              0              40334          23979          1.1689132e-11
       274   316.96623          64588   1              0              40169          24418          1.1652671e-11
       275   320.62309          64983   1              0              40115          24867          1.1681489e-11
       276   324.2971           65373   1              0              40079          25293          1.1701399e-11
       277   328.06271          65645   1              0              39908          25736          1.1681466e-11
       278   331.89304          65952   1              0              39776          26175          1.1678031e-11
       279   335.57996          66275   1              0              39641          26633          1.1675733e-11
       280   339.51094          66670   1              0              39607          27062          1.1692558e-11
       281   343.43417          66949   1              0              39406          27542          1.168634e-11 
       282   347.18306          67306   1              0              39314          27991          1.1700789e-11
       283   351.01994          67641   1              0              39192          28448          1.1704795e-11
       284   354.89194          67954   1              0              39030          28923          1.1719473e-11
       285   358.92922          68275   1              0              38851          29423          1.1711023e-11
       286   362.81559          68651   1              0              38732          29918          1.1726435e-11
       287   366.77828          68938   1              0              38528          30409          1.1724707e-11
       288   370.68819          69251   1              0              38358          30892          1.1754863e-11
       289   374.74347          69536   1              0              38161          31374          1.1740127e-11
       290   379.11397          69854   1              0              37990          31863          1.1717753e-11
       291   383.12211          70152   1              0              37820          32331          1.1744494e-11
       292   387.14236          70535   1              0              37786          32748          1.176128e-11 
       293   391.29558          70783   1              0              37590          33192          1.1776807e-11
       294   395.43717          71147   1              0              37526          33620          1.1796961e-11
       295   399.66956          71405   1              0              37353          34051          1.177645e-11 
       296   403.83375          71812   1              0              37330          34481          1.1807479e-11
       297   408.0537           72094   1              0              37159          34934          1.1806943e-11
       298   412.29169          72321   1              0              36968          35352          1.181604e-11 
       299   416.59361          72699   1              0              36947          35751          1.1817958e-11
       300   421.16014          72986   1              0              36830          36155          1.1813971e-11
       301   425.51819          73289   1              0              36770          36518          1.1832111e-11
       302   429.97264          73562   1              0              36663          36898          1.1819157e-11
       303   434.37564          73825   1              0              36558          37266          1.1820993e-11
       304   438.92734          74096   1              0              36450          37645          1.1810369e-11
       305   443.3297           74472   1              0              36439          38032          1.1854002e-11
       306   447.85166          74801   1              0              36395          38405          1.1872714e-11
       307   452.31064          75124   1              0              36350          38773          1.1892657e-11
       308   456.82818          75368   1              0              36214          39153          1.1890739e-11
       309   461.35987          75819   1              0              36345          39473          1.1936153e-11
       310   466.11983          76038   1              0              36238          39799          1.1922512e-11
       311   470.73024          76304   1              0              36119          40184          1.192204e-11 
       312   475.36797          76643   1              0              36103          40539          1.1956554e-11
       313   480.12777          76923   1              0              36031          40891          1.1966049e-11
       314   484.88011          77181   1              0              35947          41233          1.1957785e-11
       315   489.57573          77553   1              0              35993          41559          1.1987737e-11
       316   494.33899          77795   1              0              35928          41866          1.1972064e-11
       317   499.0817           78126   1              0              35939          42186          1.2001324e-11
       318   503.85999          78433   1              0              35937          42495          1.2012168e-11
       319   508.76762          78655   1              0              35838          42816          1.1994375e-11
       320   513.83604          78970   1              0              35840          43129          1.2024631e-11
Loop time of 513.836 on 16 procs for 320 steps with 78970 atoms

97.8% CPU use with 16 MPI tasks x 1 OpenMP threads

MPI task timing breakdown:
Section |  min time  |  avg time  |  max time  |%varavg| %total
---------------------------------------------------------------
Pair    | 99.833     | 134.8      | 196.37     | 282.4 | 26.23
Neigh   | 18.28      | 33.843     | 68.617     | 324.8 |  6.59
Comm    | 65.023     | 84.135     | 109.97     | 190.3 | 16.37
Output  | 6.2061     | 6.2063     | 6.2077     |   0.0 |  1.21
Modify  | 122.3      | 235.34     | 300.66     | 406.4 | 45.80
Other   |            | 19.52      |            |       |  3.80

Nlocal:        4935.62 ave        8314 max        3563 min
Histogram: 7 5 0 0 0 0 0 0 1 3
Nghost:        3926.31 ave        6373 max        2737 min
Histogram: 4 4 4 0 0 0 0 0 1 3
Neighs:        38947.1 ave       49034 max       32136 min
Histogram: 4 0 4 2 2 0 0 0 1 3

Total # of neighbors = 623154
Ave neighs/atom = 7.8910219
Neighbor list builds = 4555
Dangerous builds = 396

Total wall time: 0:09:02
