LAMMPS (23 Jun 2022 - Update 4)
  using 1 OpenMP thread(s) per MPI task
package omp 0
using multi-threaded neighbor list subroutines
#-----------------------------------------------------------------------------#
#                NUFEB Simulation: Heterotrophic Biofilm Growth               #
#-----------------------------------------------------------------------------#


#-----------------------------System Settings---------------------------------#

units si                                    # using si units (m, s, kg)
atom_style      coccus                      # using nufeb coccus atom style
atom_modify     map array sort 10 0         # map array - find atoms using indices
		                            # sort every 10

boundary        pp pp ff                    # periodic boundaries in x and y
                                            # fixed boundary in z

newton          off                         # forces between local and ghost
                                            # atoms are computed in each
					     # processor without communication

processors      * * 1                       # processor grid

comm_modify     vel yes                     # communicate velocities for ghost atoms

read_data       atom_ch.in	             # read atom.in file which defines domain size
Reading data file ...
  orthogonal box = (0 0 0) to (6e-05 6e-05 6e-05)
  4 by 4 by 1 MPI processor grid
  reading atoms ...
  150 atoms
  read_data CPU = 0.023 seconds
                                            # and initial atoms


#--------------------Microbes and Functional Groups-------------------------#

group           CROSS1   type 1               # assign type 1,2 atoms to CROSS group
50 atoms in group CROSS1
group           CROSS2   type 2
50 atoms in group CROSS2
group		CHEATER  type 3
50 atoms in group CHEATER
group           dead     type 4
0 atoms in group dead

neighbor        5e-7 bin                   # setting neighbour skin distance and style

neigh_modify    check yes                  # rebuild neighbour list if any atom
                                           # had moved more than half the skin distance


#--------------------------Mesh Grid and Substrates--------------------------#

# defining grid sytle, substrate names, and grid size
grid_style      nufeb/chemostat 3 sub metab1 metab2 5e-6

# set diffusion boundary conditions and initial concentrations (liquid:kg/m3)
grid_modify     set sub      pp pp nd  1.8e-4
No /omp style for force computation currently active
grid_modify     set metab1   pp pp nd  1e-4
No /omp style for force computation currently active
grid_modify     set metab2   pp pp nd  1e-4
No /omp style for force computation currently active


#--------------------------Biological Processes-------------------------------#

# heterotrophs growth
fix growth_cross1 CROSS1 nufeb/growth/cross1 sub 3.5e-5 metab2 4e-3 metab1 growth 0.009 yield 0.6 decay 2.6e-6 metab1_exp 20

fix growth_cross2 CROSS2 nufeb/growth/cross2 sub 3.5e-5 metab1 4e-3 metab2 growth 0.009 yield 0.6 decay 2.6e-6 metab2_exp 20

fix growth_cheater CHEATER nufeb/growth/cheater sub 3.5e-5 metab1 1e-3 metab2 1e-3 growth 0.009 yield 0.6 decay 2.6e-6
# heterotrophs division, division diameter: 1.36e-6
fix div1 CROSS1 nufeb/division/coccus 1.36e-6 299
fix div2 CROSS2 nufeb/division/coccus 1.36e-6 890
fix div3 CHEATER nufeb/division/coccus 1.36e-6 1873

fix death1 CROSS1 nufeb/death/diameter dead 5.43e-7
fix death2 CROSS2 nufeb/death/diameter dead 5.43e-7
fix death3 CHEATER nufeb/death/diameter dead 5.43e-7

#---------------------------Physical Processes--------------------------------#

pair_style  gran/hooke/history 1e-4 NULL 1e-5 NULL 0.0 0    # pairwise interaction
pair_coeff  * *                                             # between atoms

# pairwise interaction between z-wall and atoms
fix wall all wall/gran hooke/history 1e-3 NULL 1e-4 NULL 0 0 zplane 0.0 1e-04

fix vis all viscous 1e-5                                    # viscous damping force

fix grav all gravity 9.81 vector 0.0 0.0 -1.0

fix nve all nve/limit 1e-7                                  # NVE integration with
                                                            # maximum distance limit


#---------------------------Post-Physical Processes---------------------------#

fix coeff_sub all nufeb/diffusion_coeff sub ratio 0.8       # defining diffusion coeff in the biofilm
fix coeff_metab1 all nufeb/diffusion_coeff metab1 ratio 0.8    # region is 80% of the value in liquid
fix coeff_metab2 all nufeb/diffusion_coeff metab2 ratio 0.8

#---------------------------Chemical Processes---------------------------------#

fix diff_sub all nufeb/diffusion_reaction sub 1e-9        # diffusion reaction for updating
fix diff_metab1 all nufeb/diffusion_reaction metab1 4e-9     # distribusion of substrate concentration
fix diff_metab2 all nufeb/diffusion_reaction metab2 4e-9

#--------------------------Computations and Outputs----------------------------#

variable mass equal "mass(all)"                             # total mass
variable ncross1 equal "count(CROSS1)"                      # total # of CROSS1
variable ncross2 equal "count(CROSS2)"                      # total # of CROSS2
variable ncheater equal "count(CHEATER)"
variable ndead equal "count(dead)"

shell mkdir vtk_NEPS_ch                                            # dump vtk files to /vtk folder
dump du1 all vtk 10 vtk_NEPS_ch/dump*.vtu id type diameter         # require build NUFEB with vtk option
dump du2 all grid/vtk 10 vtk_NEPS_ch/dump_%_*.vti con rea den gro

#dump du3 all movie 10 movie.avi type diameter view 80 60    # dump video
#dump_modify du3 acolor 1 blue acolor 2 lightgrey framerate 10


                                                            # dump hdf5 files to /hdf5 folder
#shell mkdir hdf5                                           # require build NUFEB with hdf5 option
#dump du3 all nufeb/hdf5 10 dump.h5 id type x y z vx vy vz fx fy fz radius conc reac

thermo_style custom step cpu atoms v_ncross1 v_ncross2 v_ncheater v_ndead v_mass     # screen and log outputs
thermo 1
thermo_modify   lost ignore

#-----------------------------------Run----------------------------------------#

# issue run command, define timesteps for physical (pairdt) and chemical (diffdt) processes
run_style nufeb diffdt 1e-4 difftol 1e-6 pairdt 1e-2 pairtol 1 pairmax 1000 diffmax 5000

timestep 12000                                               # define biological timesteps (1000s)

run 320                                                    # growing biofilm for 900x1000s
Generated 0 of 6 mixed pair_coeff terms from geometric mixing rule
Last active /omp style is pair_style gran/hooke/history/omp
Neighbor list info ...
  update every 1 steps, delay 10 steps, check yes
  max neighbors/atom: 2000, page size: 100000
  master list distance cutoff = 2.49e-06
  ghost atom cutoff = 2.49e-06
  binsize = 1.245e-06, bins = 49 49 49
  1 neighbor lists, perpetual/occasional/extra = 1 0 0
  (1) pair gran/hooke/history/omp, perpetual
      attributes: half, newton off, size, history, omp
      pair build: half/size/bin/newtoff/omp
      stencil: full/bin/3d
      bin: standard
Per MPI rank memory allocation (min/avg/max) = 11.02 | 11.02 | 11.02 Mbytes
   Step          CPU          Atoms      v_ncross1      v_ncross2      v_ncheater      v_ndead         v_mass    
         0   0                    150   50             50             50             0              1.3295396e-13
         1   0.39407539           273   96             91             86             0              1.9616795e-13
         2   0.77253518           432   148            149            135            0              2.2411954e-13
         3   1.071278             540   173            195            172            0              2.453457e-13 
         4   1.3656449            586   187            211            188            0              2.6390027e-13
         5   1.5535384            624   195            226            203            0              2.8127182e-13
         6   1.7125571            665   209            240            216            0              2.9764675e-13
         7   1.8597552            698   220            251            227            0              3.132367e-13 
         8   1.973917             738   232            267            239            0              3.2778056e-13
         9   2.0815798            770   242            280            248            0              3.4147182e-13
        10   2.2175114            795   244            286            265            0              3.5469766e-13
        11   2.3159756            826   250            295            281            0              3.6704443e-13
        12   2.3953127            858   261            303            294            0              3.7870837e-13
        13   2.4705685            887   270            312            305            0              3.8982487e-13
        14   2.5591345            913   277            318            318            0              4.0051165e-13
        15   2.636925             939   285            326            328            0              4.1067966e-13
        16   2.7157644            966   293            331            342            0              4.204711e-13 
        17   2.7976974            987   294            337            356            0              4.2982389e-13
        18   2.8702578           1013   299            347            367            0              4.3872871e-13
        19   2.9616117           1037   304            354            379            0              4.4723547e-13
        20   3.0433488           1060   307            361            392            0              4.5555308e-13
        21   3.1300779           1080   313            362            405            0              4.6345488e-13
        22   3.2052023           1097   314            362            421            0              4.7115652e-13
        23   3.2755584           1117   317            368            432            0              4.7847917e-13
        24   3.3427717           1138   322            371            445            0              4.8553976e-13
        25   3.4193913           1159   327            375            457            0              4.9228659e-13
        26   3.4859657           1179   330            376            473            0              4.9886333e-13
        27   3.545746            1194   330            378            486            0              5.0521417e-13
        28   3.6185341           1207   332            378            497            0              5.1127424e-13
        29   3.6865862           1232   339            382            511            0              5.1716871e-13
        30   3.7622901           1245   341            384            520            0              5.2284514e-13
        31   3.8359775           1261   344            386            531            0              5.2831989e-13
        32   3.8879802           1283   346            391            546            0              5.3343745e-13
        33   3.9392357           1302   347            394            561            0              5.3830259e-13
        34   3.9909872           1311   347            394            570            0              5.4298013e-13
        35   4.0382479           1331   351            397            583            0              5.4746196e-13
        36   4.0917188           1345   352            400            593            0              5.5174962e-13
        37   4.1327541           1357   353            403            601            0              5.5589768e-13
        38   4.1741443           1371   356            405            610            0              5.598395e-13 
        39   4.2493483           1389   360            408            621            0              5.6360192e-13
        40   4.3352694           1396   362            408            626            0              5.6734739e-13
        41   4.4037996           1411   363            409            639            0              5.7099872e-13
        42   4.4917681           1430   366            412            652            0              5.7453615e-13
        43   4.5352178           1441   367            413            661            0              5.7810351e-13
        44   4.5813346           1455   369            413            673            0              5.8151348e-13
        45   4.6593172           1464   370            413            681            0              5.8477507e-13
        46   4.7440918           1471   370            413            688            0              5.8805281e-13
        47   4.8367974           1479   370            415            694            0              5.913468e-13 
        48   4.9412785           1493   372            417            704            0              5.947516e-13 
        49   5.0290909           1508   373            419            716            0              5.9819129e-13
        50   5.1506336           1524   375            421            728            0              6.0164034e-13
        51   5.2562591           1538   376            422            740            0              6.0535434e-13
        52   5.3863332           1552   376            423            752            1              6.091255e-13 
        53   5.498738            1566   379            423            763            1              6.1318952e-13
        54   5.618864            1579   381            424            773            1              6.1730046e-13
        55   5.7304055           1596   381            424            789            2              6.2162944e-13
        56   5.8400676           1613   381            424            805            3              6.2604273e-13
        57   5.9416306           1633   381            424            823            5              6.3055461e-13
        58   6.0446061           1643   381            425            829            8              6.3510676e-13
        59   6.1380246           1655   381            425            841            8              6.3965667e-13
        60   6.2384508           1680   381            425            861            13             6.4420091e-13
        61   6.3215935           1699   381            427            878            13             6.4866478e-13
        62   6.3941734           1717   382            427            891            17             6.5303064e-13
        63   6.465879            1733   383            427            902            21             6.5727666e-13
        64   6.5332128           1750   384            427            914            25             6.6141071e-13
        65   6.6344098           1764   385            427            924            28             6.6543159e-13
        66   6.7288763           1786   386            428            933            39             6.6958587e-13
        67   6.851931            1803   387            428            942            46             6.7379651e-13
        68   6.9691066           1821   387            428            955            51             6.7800255e-13
        69   7.1010522           1831   387            428            956            60             6.8228874e-13
        70   7.2942855           1851   387            429            969            66             6.8678178e-13
        71   7.4850731           1869   387            429            979            74             6.9177462e-13
        72   7.6939346           1887   387            429            985            86             6.9714762e-13
        73   7.8995668           1913   389            429            997            98             7.0307357e-13
        74   8.0927639           1938   389            429            1012           108            7.0941281e-13
        75   8.2617349           1959   389            430            1028           112            7.1600926e-13
        76   8.4192234           1981   389            430            1047           115            7.2266159e-13
        77   8.5521396           2007   390            430            1058           129            7.2928908e-13
        78   8.6700804           2029   390            431            1074           134            7.3579217e-13
        79   8.7996787           2048   390            431            1085           142            7.420982e-13 
        80   8.916049            2079   391            431            1110           147            7.4842771e-13
        81   9.0080439           2097   391            431            1126           149            7.5439992e-13
        82   9.1190313           2124   391            431            1147           155            7.6016921e-13
        83   9.2727168           2144   392            432            1162           158            7.6582267e-13
        84   9.4444766           2172   392            432            1186           162            7.7173979e-13
        85   9.7160925           2191   392            432            1201           166            7.7779183e-13
        86   9.9599886           2223   392            432            1228           171            7.847846e-13 
        87   10.247454           2250   392            432            1253           173            7.9231923e-13
        88   10.555635           2284   393            432            1282           177            8.0070033e-13
        89   10.807632           2312   393            432            1308           179            8.0993573e-13
        90   42.122563           2350   393            434            1337           186            8.1957617e-13
        91   42.359336           2395   393            434            1379           189            8.2963122e-13
        92   42.59986            2430   393            434            1410           193            8.3980284e-13
        93   42.814468           2460   393            434            1437           196            8.5016173e-13
        94   42.987738           2506   393            434            1482           197            8.6049124e-13
        95   43.182545           2544   394            434            1518           198            8.7061197e-13
        96   43.385111           2580   394            434            1549           203            8.8066704e-13
        97   43.575071           2619   394            434            1584           207            8.9088537e-13
        98   43.821913           2656   395            434            1619           208            9.0088083e-13
        99   44.175636           2704   395            434            1665           210            9.116563e-13 
       100   44.498006           2756   396            434            1714           212            9.2342684e-13
       101   44.877589           2797   396            434            1755           212            9.3573814e-13
       102   45.25882            2851   396            434            1806           215            9.4938005e-13
       103   45.633753           2897   396            434            1849           218            9.6422931e-13
       104   46.005992           2959   396            434            1904           225            9.8006223e-13
       105   46.357492           3020   396            434            1961           229            9.9678009e-13
       106   46.68283            3092   396            434            2021           241            1.0137097e-12
       107   46.978353           3150   396            434            2075           245            1.0307443e-12
       108   47.266944           3227   396            434            2150           247            1.0477051e-12
       109   47.509961           3291   396            434            2201           260            1.0643854e-12
       110   47.861322           3380   396            434            2284           266            1.0806886e-12
       111   48.214541           3436   396            434            2332           274            1.0969248e-12
       112   48.535435           3506   396            433            2393           284            1.1136245e-12
       113   48.912179           3579   396            433            2457           293            1.1303393e-12
       114   49.309433           3663   396            433            2532           302            1.1478321e-12
       115   49.680461           3733   396            433            2592           312            1.1662808e-12
       116   50.074609           3819   396            433            2670           320            1.1850392e-12
       117   50.468922           3884   396            433            2732           323            1.204489e-12 
       118   50.868683           3965   396            433            2810           326            1.2247356e-12
       119   51.256882           4044   396            432            2886           330            1.2454048e-12
       120   51.64933            4137   396            431            2974           336            1.2660173e-12
       121   51.996494           4217   396            431            3052           338            1.2866381e-12
       122   52.325687           4312   396            431            3145           340            1.3069262e-12
       123   52.64785            4420   396            431            3249           344            1.3268099e-12
       124   53.009472           4489   396            431            3316           346            1.3464429e-12
       125   53.405679           4576   396            430            3403           347            1.3661579e-12
       126   53.80596            4656   396            429            3481           350            1.3861889e-12
       127   54.231044           4760   396            429            3583           352            1.4064051e-12
       128   54.651125           4854   396            429            3676           353            1.4276959e-12
       129   55.062699           4955   396            429            3777           353            1.4495718e-12
       130   55.502858           5050   396            429            3871           354            1.4721119e-12
       131   55.913068           5151   396            429            3972           354            1.4954725e-12
       132   56.338143           5245   396            429            4063           357            1.5190802e-12
       133   56.775461           5356   396            429            4173           358            1.5430301e-12
       134   57.203917           5439   396            429            4254           360            1.5669554e-12
       135   57.57948            5550   396            429            4363           362            1.5907513e-12
       136   57.9613             5662   396            429            4472           365            1.6138588e-12
       137   58.371432           5749   396            429            4557           367            1.6366308e-12
       138   58.801977           5878   396            429            4680           373            1.6594341e-12
       139   59.250041           5998   396            429            4790           383            1.6826135e-12
       140   59.987967           6110   396            429            4890           395            1.7062608e-12
       141   60.52353            6215   396            429            4983           407            1.7304016e-12
       142   60.988241           6332   396            429            5093           414            1.7557183e-12
       143   61.434216           6455   395            429            5199           432            1.7818329e-12
       144   61.902801           6554   395            429            5285           445            1.8087858e-12
       145   62.34595            6670   395            429            5382           464            1.8359363e-12
       146   62.828436           6807   395            429            5499           484            1.8628578e-12
       147   63.30086            6922   395            429            5591           507            1.8899388e-12
       148   63.77757            7052   395            429            5696           532            1.9168426e-12
       149   64.275718           7175   395            429            5794           557            1.9439604e-12
       150   64.890769           7289   395            429            5874           591            1.9709899e-12
       151   65.488049           7423   395            429            5968           631            1.9985631e-12
       152   66.001743           7544   395            429            6050           670            2.0278215e-12
       153   66.494302           7700   395            429            6164           712            2.0591515e-12
       154   67.069012           7838   395            429            6253           761            2.0919312e-12
       155   67.563504           7997   395            429            6365           808            2.1262175e-12
       156   68.065532           8150   395            428            6466           861            2.1613772e-12
       157   68.586962           8296   395            427            6550           924            2.1973309e-12
       158   69.1105             8462   395            427            6655           985            2.2339083e-12
       159   69.621526           8635   393            427            6772           1043           2.2714447e-12
       160   70.147146           8803   393            427            6890           1093           2.3088449e-12
       161   70.703917           8959   393            427            6987           1152           2.3466825e-12
       162   71.266513           9153   392            427            7129           1205           2.3865816e-12
       163   71.893421           9341   391            427            7255           1268           2.4272792e-12
       164   72.451505           9527   391            426            7393           1317           2.4690614e-12
       165   73.020645           9743   391            426            7556           1370           2.5128571e-12
       166   73.607484           9939   391            426            7710           1412           2.5580163e-12
       167   74.189734          10153   391            426            7876           1460           2.6050636e-12
       168   74.76875           10347   391            426            8028           1502           2.6530867e-12
       169   75.395005          10552   391            425            8179           1557           2.7021728e-12
       170   76.064892          10766   390            425            8336           1615           2.7523173e-12
       171   76.698239          10989   390            423            8517           1659           2.8034466e-12
       172   77.394654          11231   390            422            8710           1709           2.8558805e-12
       173   78.050376          11473   390            421            8903           1759           2.9110287e-12
       174   78.743983          11716   390            421            9097           1808           2.9700288e-12
       175   79.461822          11977   390            421            9314           1852           3.0313327e-12
       176   80.207658          12249   390            421            9528           1910           3.097065e-12 
       177   80.933716          12511   390            420            9746           1955           3.1653226e-12
       178   81.735535          12819   390            419            10006          2004           3.2350121e-12
       179   82.559091          13084   390            419            10224          2051           3.3061332e-12
       180   83.434377          13382   390            419            10463          2110           3.3807965e-12
       181   84.324764          13699   390            419            10724          2166           3.4586194e-12
       182   85.368145          14029   389            419            11007          2214           3.5426913e-12
       183   86.400458          14374   389            419            11289          2277           3.634732e-12 
       184   87.552769          14709   389            419            11582          2319           3.7355961e-12
       185   88.747122          15123   388            419            11947          2369           3.8476064e-12
       186   90.193532          15538   386            419            12314          2419           3.9691472e-12
       187   91.697877          15957   386            418            12688          2465           4.0961285e-12
       188   93.224825          16396   386            418            13079          2513           4.2281136e-12
       189   95.126188          16872   386            418            13503          2565           4.3549608e-12
       190   97.32411           17323   386            418            13888          2631           4.4896338e-12
       191   99.524206          17764   386            417            14261          2700           4.6144502e-12
       192   101.77555          18225   386            417            14653          2769           4.7464822e-12
       193   104.10186          18727   386            416            15085          2840           4.882053e-12 
       194   106.43544          19235   386            415            15520          2914           5.0255726e-12
       195   108.84043          19749   385            411            15960          2993           5.1716817e-12
       196   111.2796           20293   385            410            16442          3056           5.3196569e-12
       197   113.75567          20850   385            410            16929          3126           5.4663098e-12
       198   116.2679           21357   385            408            17364          3200           5.6114241e-12
       199   118.79933          21971   385            408            17902          3276           5.7703009e-12
       200   121.44168          22527   383            408            18367          3369           5.9293386e-12
       201   124.03145          23163   383            407            18902          3471           6.0957453e-12
       202   126.61009          23790   380            406            19454          3550           6.2616773e-12
       203   129.22739          24419   378            404            19986          3651           6.4364351e-12
       204   131.85607          25096   376            403            20584          3733           6.6148933e-12
       205   134.51558          25742   375            402            21099          3866           6.7834399e-12
       206   137.16121          26423   374            401            21678          3970           6.9712444e-12
       207   139.84493          27108   373            400            22250          4085           7.1505373e-12
       208   142.52479          27827   370            397            22820          4240           7.3406057e-12
       209   145.21016          28583   367            397            23437          4382           7.5453861e-12
       210   147.97434          29291   363            393            23989          4546           7.7287433e-12
       211   150.6636           30003   362            389            24543          4709           7.9297602e-12
       212   153.39034          30756   352            384            25139          4881           8.1280592e-12
       213   156.08645          31562   350            376            25781          5055           8.3477156e-12
       214   158.78626          32387   341            371            26416          5259           8.5501436e-12
       215   161.46792          33171   335            363            27011          5462           8.7553213e-12
       216   164.17521          33914   332            355            27549          5678           8.9448186e-12
       217   166.86109          34715   319            346            28117          5933           9.1472678e-12
       218   169.56739          35488   306            337            28660          6185           9.3398588e-12
       219   172.27292          36281   298            322            29163          6498           9.5425654e-12
       220   175.09168          37228   290            313            29817          6808           9.7509936e-12
       221   177.88974          37990   274            296            30288          7132           9.9256451e-12
       222   180.65238          38779   258            280            30780          7461           1.012299e-11 
       223   183.47014          39513   238            257            31249          7769           1.0287073e-11
       224   186.22498          40292   226            245            31773          8048           1.0442088e-11
       225   189.01541          41003   211            233            32208          8351           1.0587345e-11
       226   191.82386          41823   189            210            32764          8660           1.0762846e-11
       227   194.64851          42471   163            192            33163          8953           1.0883934e-11
       228   197.46631          43180   147            169            33641          9223           1.0989639e-11
       229   200.30227          43835   124            141            34043          9527           1.1113969e-11
       230   203.26334          44461   112            121            34436          9792           1.1199704e-11
       231   206.12173          45161   95             103            34938          10025          1.1307467e-11
       232   208.99836          45758   77             89             35343          10249          1.1388669e-11
       233   211.89563          46261   62             74             35699          10426          1.1471791e-11
       234   214.81812          46817   59             62             36087          10609          1.1522991e-11
       235   217.75886          47466   49             52             36592          10773          1.1596234e-11
       236   220.71441          48049   40             38             37020          10951          1.1627113e-11
       237   223.74036          48474   29             28             37272          11145          1.1655977e-11
       238   226.77702          49000   20             20             37583          11377          1.1726201e-11
       239   229.79343          49553   15             10             37928          11600          1.1733917e-11
       240   232.99266          50009   9              5              38106          11889          1.1760995e-11
       241   236.09465          50530   7              3              38362          12158          1.1780089e-11
       242   239.20987          50913   6              3              38478          12426          1.1784096e-11
       243   242.32395          51444   5              1              38691          12747          1.1815129e-11
       244   245.4797           51895   5              1              38790          13099          1.1824843e-11
       245   248.65654          52273   3              1              38811          13458          1.1824821e-11
       246   251.88987          52749   2              1              38939          13807          1.1822584e-11
       247   255.09596          53206   1              1              39046          14158          1.18308e-11  
       248   258.3693           53572   0              1              39077          14494          1.1828621e-11
       249   261.63422          53962   0              1              39169          14792          1.1820927e-11
       250   265.07887          54362   0              1              39260          15101          1.1811806e-11
       251   268.41232          54812   0              1              39388          15423          1.1806665e-11
       252   271.75887          55201   0              1              39445          15755          1.1818207e-11
       253   275.17887          55619   0              0              39551          16068          1.1825084e-11
       254   278.59021          56090   0              0              39718          16372          1.1819674e-11
       255   282.07202          56378   0              0              39709          16669          1.1801577e-11
       256   285.56452          56711   0              0              39787          16924          1.1775273e-11
       257   289.07741          57131   0              0              39924          17207          1.1774977e-11
       258   292.59331          57525   0              0              40038          17487          1.178154e-11 
       259   296.12274          57803   0              0              40029          17774          1.1738296e-11
       260   299.86807          58285   0              0              40242          18043          1.1763006e-11
       261   303.50634          58595   0              0              40259          18336          1.1760318e-11
       262   307.15061          58999   0              0              40324          18675          1.176591e-11 
       263   310.85947          59413   0              0              40423          18990          1.1766584e-11
       264   314.58344          59799   0              0              40505          19294          1.1759202e-11
       265   318.38732          60157   0              0              40533          19624          1.1737001e-11
       266   322.17454          60491   0              0              40550          19941          1.1738858e-11
       267   326.04233          60798   0              0              40551          20247          1.1737195e-11
       268   329.89609          61127   0              0              40549          20578          1.1720797e-11
       269   333.82006          61460   0              0              40549          20911          1.168852e-11 
       270   337.89991          61878   0              0              40638          21240          1.1717159e-11
       271   341.88709          62236   0              0              40650          21586          1.1695472e-11
       272   345.88962          62540   0              0              40590          21950          1.1690736e-11
       273   349.91164          62850   0              0              40523          22327          1.1691815e-11
       274   353.95527          63178   0              0              40493          22685          1.1682782e-11
       275   358.06369          63519   0              0              40450          23069          1.1679327e-11
       276   362.20221          63939   0              0              40472          23467          1.1685642e-11
       277   366.38593          64256   0              0              40388          23868          1.1694948e-11
       278   370.60349          64607   0              0              40321          24286          1.1707981e-11
       279   374.85789          64920   0              0              40253          24667          1.1682482e-11
       280   379.31494          65319   0              0              40226          25093          1.1700194e-11
       281   383.65865          65486   0              0              39945          25541          1.16651e-11  
       282   388.00704          65869   0              0              39884          25985          1.1666103e-11
       283   392.42438          66171   0              0              39720          26451          1.1670195e-11
       284   396.73738          66609   0              0              39712          26897          1.169336e-11 
       285   401.06106          66937   0              0              39584          27353          1.1703063e-11
       286   405.50134          67290   0              0              39469          27821          1.1716954e-11
       287   409.95759          67509   0              0              39229          28280          1.1702942e-11
       288   414.54501          67817   0              0              39065          28752          1.1694764e-11
       289   419.15418          68164   0              0              38905          29259          1.1680729e-11
       290   423.96693          68446   0              0              38720          29726          1.167712e-11 
       291   428.61112          68778   0              0              38589          30189          1.1699229e-11
       292   433.13163          69187   0              0              38523          30664          1.1727443e-11
       293   437.77617          69455   0              0              38356          31099          1.1733774e-11
       294   442.49312          69784   0              0              38215          31569          1.1729454e-11
       295   447.22196          70137   0              0              38127          32010          1.1739421e-11
       296   451.98574          70474   0              0              38034          32440          1.175841e-11 
       297   456.94754          70656   0              0              37729          32927          1.1724918e-11
       298   461.92286          71009   0              0              37602          33407          1.1755251e-11
       299   466.86513          71324   0              0              37476          33848          1.1753034e-11
       300   471.90891          71557   0              0              37277          34280          1.1750684e-11
       301   476.93062          71949   0              0              37255          34694          1.1761153e-11
       302   481.91615          72191   0              0              37084          35107          1.1755244e-11
       303   486.89974          72562   0              0              37046          35516          1.1792499e-11
       304   491.91191          72847   0              0              36935          35912          1.1799885e-11
       305   497.00621          73129   0              0              36809          36320          1.1810922e-11
       306   502.12106          73532   0              0              36850          36682          1.1830147e-11
       307   507.20051          73855   0              0              36762          37093          1.1855649e-11
       308   512.36288          74208   0              0              36700          37508          1.1867924e-11
       309   517.55441          74415   0              0              36518          37897          1.1871972e-11
       310   523.04654          74771   0              0              36483          38288          1.187775e-11 
       311   528.3778           75021   0              0              36386          38635          1.1881304e-11
       312   533.64112          75402   0              0              36417          38985          1.192329e-11 
       313   539.02066          75674   0              0              36328          39346          1.1904907e-11
       314   544.41439          75965   0              0              36265          39700          1.1916617e-11
       315   549.77594          76311   0              0              36239          40072          1.1960899e-11
       316   555.21135          76609   0              0              36174          40435          1.1969499e-11
       317   560.78069          76826   0              0              36006          40820          1.1944152e-11
       318   566.37648          77173   0              0              36030          41143          1.1970678e-11
       319   572.07837          77432   0              0              35961          41471          1.1951025e-11
       320   577.92051          77732   0              0              35932          41800          1.1978034e-11
Loop time of 577.921 on 16 procs for 320 steps with 77732 atoms

94.3% CPU use with 16 MPI tasks x 1 OpenMP threads

MPI task timing breakdown:
Section |  min time  |  avg time  |  max time  |%varavg| %total
---------------------------------------------------------------
Pair    | 100.63     | 136.92     | 206.48     | 259.1 | 23.69
Neigh   | 15.055     | 30.922     | 75.402     | 319.2 |  5.35
Comm    | 74.702     | 96.756     | 126.09     | 197.6 | 16.74
Output  | 33.728     | 33.728     | 33.728     |   0.0 |  5.84
Modify  | 135.51     | 256.02     | 326.29     | 366.0 | 44.30
Other   |            | 23.58      |            |       |  4.08

Nlocal:        4858.25 ave        9483 max        3394 min
Histogram: 7 3 2 2 0 0 0 0 0 2
Nghost:        3750.56 ave        6134 max        2747 min
Histogram: 8 2 0 2 0 0 2 0 0 2
Neighs:        37202.6 ave       48706 max       30019 min
Histogram: 2 2 4 2 2 0 2 0 0 2

Total # of neighbors = 595242
Ave neighs/atom = 7.6576185
Neighbor list builds = 4392
Dangerous builds = 379

Total wall time: 0:09:38
