LAMMPS (23 Jun 2022 - Update 4)
  using 1 OpenMP thread(s) per MPI task
package omp 0
using multi-threaded neighbor list subroutines
#-----------------------------------------------------------------------------#
#                NUFEB Simulation: Heterotrophic Biofilm Growth               #
#-----------------------------------------------------------------------------#


#-----------------------------System Settings---------------------------------#

units si                                    # using si units (m, s, kg)
atom_style      coccus                      # using nufeb coccus atom style
atom_modify     map array sort 10 0         # map array - find atoms using indices
		                            # sort every 10

boundary        pp pp ff                    # periodic boundaries in x and y
                                            # fixed boundary in z

newton          off                         # forces between local and ghost
                                            # atoms are computed in each
					     # processor without communication

processors      * * 1                       # processor grid

comm_modify     vel yes                     # communicate velocities for ghost atoms

read_data       atom_ch.in	             # read atom.in file which defines domain size
Reading data file ...
  orthogonal box = (0 0 0) to (6e-05 6e-05 6e-05)
  4 by 4 by 1 MPI processor grid
  reading atoms ...
  150 atoms
  read_data CPU = 0.013 seconds
                                            # and initial atoms


#--------------------Microbes and Functional Groups-------------------------#

group           CROSS1   type 1               # assign type 1,2 atoms to CROSS group
50 atoms in group CROSS1
group           CROSS2   type 2
50 atoms in group CROSS2
group		CHEATER  type 3
50 atoms in group CHEATER
group           dead     type 4
0 atoms in group dead

neighbor        5e-7 bin                   # setting neighbour skin distance and style

neigh_modify    check yes                  # rebuild neighbour list if any atom
                                           # had moved more than half the skin distance


#--------------------------Mesh Grid and Substrates--------------------------#

# defining grid sytle, substrate names, and grid size
grid_style      nufeb/chemostat 3 sub metab1 metab2 5e-6

# set diffusion boundary conditions and initial concentrations (liquid:kg/m3)
grid_modify     set sub      pp pp nd  1.8e-4
No /omp style for force computation currently active
grid_modify     set metab1   pp pp nd  1e-4
No /omp style for force computation currently active
grid_modify     set metab2   pp pp nd  1e-4
No /omp style for force computation currently active


#--------------------------Biological Processes-------------------------------#

# heterotrophs growth
fix growth_cross1 CROSS1 nufeb/growth/cross1 sub 3.5e-5 metab2 4e-3 metab1 growth 0.009 yield 0.6 decay 2.6e-6 metab1_exp 20

fix growth_cross2 CROSS2 nufeb/growth/cross2 sub 3.5e-5 metab1 4e-3 metab2 growth 0.009 yield 0.6 decay 2.6e-6 metab2_exp 20

fix growth_cheater CHEATER nufeb/growth/cheater sub 3.5e-5 metab1 1e-3 metab2 1e-3 growth 0.009 yield 0.6 decay 2.6e-6
# heterotrophs division, division diameter: 1.36e-6
fix div1 CROSS1 nufeb/division/coccus 1.36e-6 2504
fix div2 CROSS2 nufeb/division/coccus 1.36e-6 9710
fix div3 CHEATER nufeb/division/coccus 1.36e-6 21718

fix death1 CROSS1 nufeb/death/diameter dead 5.43e-7
fix death2 CROSS2 nufeb/death/diameter dead 5.43e-7
fix death3 CHEATER nufeb/death/diameter dead 5.43e-7

#---------------------------Physical Processes--------------------------------#

pair_style  gran/hooke/history 1e-4 NULL 1e-5 NULL 0.0 0    # pairwise interaction
pair_coeff  * *                                             # between atoms

# pairwise interaction between z-wall and atoms
fix wall all wall/gran hooke/history 1e-3 NULL 1e-4 NULL 0 0 zplane 0.0 1e-04

fix vis all viscous 1e-5                                    # viscous damping force

fix grav all gravity 9.81 vector 0.0 0.0 -1.0

fix nve all nve/limit 1e-7                                  # NVE integration with
                                                            # maximum distance limit


#---------------------------Post-Physical Processes---------------------------#

fix coeff_sub all nufeb/diffusion_coeff sub ratio 0.8       # defining diffusion coeff in the biofilm
fix coeff_metab1 all nufeb/diffusion_coeff metab1 ratio 0.8    # region is 80% of the value in liquid
fix coeff_metab2 all nufeb/diffusion_coeff metab2 ratio 0.8

#---------------------------Chemical Processes---------------------------------#

fix diff_sub all nufeb/diffusion_reaction sub 1e-9        # diffusion reaction for updating
fix diff_metab1 all nufeb/diffusion_reaction metab1 4e-9     # distribusion of substrate concentration
fix diff_metab2 all nufeb/diffusion_reaction metab2 4e-9

#--------------------------Computations and Outputs----------------------------#

variable mass equal "mass(all)"                             # total mass
variable ncross1 equal "count(CROSS1)"                      # total # of CROSS1
variable ncross2 equal "count(CROSS2)"                      # total # of CROSS2
variable ncheater equal "count(CHEATER)"
variable ndead equal "count(dead)"

shell mkdir vtk_NEPS_ch                                            # dump vtk files to /vtk folder
dump du1 all vtk 10 vtk_NEPS_ch/dump*.vtu id type diameter         # require build NUFEB with vtk option
dump du2 all grid/vtk 10 vtk_NEPS_ch/dump_%_*.vti con rea den gro

#dump du3 all movie 10 movie.avi type diameter view 80 60    # dump video
#dump_modify du3 acolor 1 blue acolor 2 lightgrey framerate 10


                                                            # dump hdf5 files to /hdf5 folder
#shell mkdir hdf5                                           # require build NUFEB with hdf5 option
#dump du3 all nufeb/hdf5 10 dump.h5 id type x y z vx vy vz fx fy fz radius conc reac

thermo_style custom step cpu atoms v_ncross1 v_ncross2 v_ncheater v_ndead v_mass     # screen and log outputs
thermo 1
thermo_modify   lost ignore

#-----------------------------------Run----------------------------------------#

# issue run command, define timesteps for physical (pairdt) and chemical (diffdt) processes
run_style nufeb diffdt 1e-4 difftol 1e-6 pairdt 1e-2 pairtol 1 pairmax 1000 diffmax 5000

timestep 12000                                               # define biological timesteps (1000s)

run 320                                                    # growing biofilm for 900x1000s
Generated 0 of 6 mixed pair_coeff terms from geometric mixing rule
Last active /omp style is pair_style gran/hooke/history/omp
Neighbor list info ...
  update every 1 steps, delay 10 steps, check yes
  max neighbors/atom: 2000, page size: 100000
  master list distance cutoff = 2.49e-06
  ghost atom cutoff = 2.49e-06
  binsize = 1.245e-06, bins = 49 49 49
  1 neighbor lists, perpetual/occasional/extra = 1 0 0
  (1) pair gran/hooke/history/omp, perpetual
      attributes: half, newton off, size, history, omp
      pair build: half/size/bin/newtoff/omp
      stencil: full/bin/3d
      bin: standard
Per MPI rank memory allocation (min/avg/max) = 11.02 | 11.02 | 11.02 Mbytes
   Step          CPU          Atoms      v_ncross1      v_ncross2      v_ncheater      v_ndead         v_mass    
         0   0                    150   50             50             50             0              1.3295396e-13
         1   0.3808079            273   96             91             86             0              1.9616795e-13
         2   0.74767852           431   147            149            135            0              2.2439978e-13
         3   1.0396739            538   170            194            174            0              2.4600409e-13
         4   1.3277825            585   181            213            191            0              2.6494984e-13
         5   1.5213827            621   193            224            204            0              2.8247612e-13
         6   1.6393184            667   205            245            217            0              2.9883674e-13
         7   1.7821386            708   217            257            234            0              3.144255e-13 
         8   1.9212176            737   228            266            243            0              3.2912678e-13
         9   2.02862              771   240            278            253            0              3.4318758e-13
        10   2.1374664            802   252            285            265            0              3.5629928e-13
        11   2.2438724            827   256            292            279            0              3.6887433e-13
        12   2.3325221            861   265            301            295            0              3.808646e-13 
        13   2.447914             887   270            305            312            0              3.9221567e-13
        14   2.5555917            915   274            315            326            0              4.0334445e-13
        15   2.6454787            947   285            322            340            0              4.1399534e-13
        16   2.7437039            976   291            332            353            0              4.2411012e-13
        17   2.8433553            998   298            337            363            0              4.3380627e-13
        18   2.9237701           1020   303            338            379            0              4.4322414e-13
        19   3.053768            1039   309            341            389            0              4.5227587e-13
        20   3.1898617           1072   316            351            405            0              4.6112973e-13
        21   3.2949389           1091   320            355            416            0              4.6985546e-13
        22   3.4419913           1111   323            357            431            0              4.7841749e-13
        23   3.5750359           1139   328            361            450            0              4.8701859e-13
        24   3.7194312           1163   330            361            472            0              4.9578691e-13
        25   3.8574044           1192   333            366            493            0              5.0440578e-13
        26   3.9913808           1221   338            373            510            0              5.1298889e-13
        27   4.1376235           1252   344            374            534            0              5.2142622e-13
        28   4.2964581           1280   350            375            555            0              5.2984502e-13
        29   4.4084824           1307   352            380            575            0              5.3830382e-13
        30   4.534529            1332   353            381            598            0              5.4659992e-13
        31   4.660799            1351   354            383            614            0              5.5458196e-13
        32   4.7591781           1375   355            385            635            0              5.6224739e-13
        33   4.8450728           1402   360            385            657            0              5.6969429e-13
        34   4.9290387           1427   362            386            679            0              5.7689442e-13
        35   5.0045554           1448   364            389            695            0              5.8377773e-13
        36   5.0777647           1465   365            390            710            0              5.90343e-13  
        37   5.1825631           1483   368            390            725            0              5.9660296e-13
        38   5.2733883           1504   370            391            743            0              6.0283052e-13
        39   5.3657614           1522   373            391            758            0              6.0893535e-13
        40   5.5097444           1545   378            392            775            0              6.1474653e-13
        41   5.6881142           1563   378            393            792            0              6.206975e-13 
        42   5.8119714           1581   379            396            806            0              6.2700182e-13
        43   6.0076589           1609   380            397            832            0              6.331859e-13 
        44   6.2147401           1632   381            398            853            0              6.397766e-13 
        45   6.4138831           1653   382            399            872            0              6.4676706e-13
        46   6.6167965           1682   384            400            898            0              6.5403021e-13
        47   6.7925503           1707   386            401            920            0              6.6155873e-13
        48   6.9695728           1730   387            402            941            0              6.6910114e-13
        49   7.106304            1765   389            403            973            0              6.7666589e-13
        50   7.2629587           1788   389            403            996            0              6.8402126e-13
        51   7.3867767           1804   389            403            1011           1              6.9114144e-13
        52   7.4932697           1836   390            404            1040           2              6.9800553e-13
        53   7.5939123           1863   391            406            1063           3              7.0455276e-13
        54   7.6847614           1887   391            407            1086           3              7.1080396e-13
        55   7.8536421           1912   393            407            1107           5              7.1680995e-13
        56   8.0033235           1930   395            407            1118           10             7.2331229e-13
        57   8.2094963           1949   395            408            1134           12             7.2954851e-13
        58   8.423226            1975   396            408            1158           13             7.3643735e-13
        59   8.6957298           1999   396            408            1177           18             7.4346756e-13
        60   9.0191933           2026   398            408            1196           24             7.5148902e-13
        61   9.3267639           2068   398            409            1228           33             7.6050417e-13
        62   9.6086376           2107   399            409            1262           37             7.7039027e-13
        63   9.8800375           2144   399            410            1292           43             7.8080172e-13
        64   10.106998           2184   399            410            1326           49             7.9163133e-13
        65   10.342819           2224   399            410            1361           54             8.0246783e-13
        66   10.562378           2265   399            410            1397           59             8.1332676e-13
        67   10.759977           2305   399            410            1429           67             8.2421225e-13
        68   10.931773           2347   399            410            1460           78             8.3494109e-13
        69   11.136521           2395   399            410            1498           88             8.4535047e-13
        70   11.385519           2433   400            410            1530           93             8.557919e-13 
        71   11.665739           2478   401            410            1567           100            8.661576e-13 
        72   11.96536            2527   401            411            1605           110            8.772717e-13 
        73   12.310459           2566   401            411            1639           115            8.8896629e-13
        74   12.643789           2623   401            411            1684           127            9.0147767e-13
        75   13.013142           2673   401            411            1723           138            9.1472402e-13
        76   13.380217           2725   402            411            1769           143            9.2895542e-13
        77   13.739976           2791   402            411            1823           155            9.4399626e-13
        78   14.086522           2848   402            411            1873           162            9.5973759e-13
        79   14.394156           2909   402            411            1929           167            9.7582323e-13
        80   14.707281           2987   401            411            1998           177            9.9189638e-13
        81   14.991466           3039   401            411            2047           180            1.0078463e-12
        82   15.246193           3104   402            411            2103           188            1.0235505e-12
        83   15.511619           3183   402            411            2167           203            1.0388972e-12
        84   15.759873           3247   402            411            2221           213            1.053978e-12 
        85   16.03697            3307   402            411            2276           218            1.0687906e-12
        86   16.382116           3381   402            411            2343           225            1.0837116e-12
        87   16.770854           3459   402            411            2413           233            1.0991733e-12
        88   17.16379            3513   400            411            2460           242            1.1152782e-12
        89   17.544759           3582   400            411            2525           246            1.1323658e-12
        90   17.966076           3655   400            411            2590           254            1.1497226e-12
        91   18.354775           3717   399            411            2649           258            1.167878e-12 
        92   18.713371           3795   399            411            2721           264            1.1863151e-12
        93   19.058843           3874   399            411            2794           270            1.2046426e-12
        94   19.380587           3952   400            411            2868           273            1.2228658e-12
        95   19.715373           4040   400            411            2953           276            1.2407161e-12
        96   20.049287           4106   400            411            3017           278            1.2583844e-12
        97   20.401518           4176   400            411            3086           279            1.2758439e-12
        98   20.76115            4260   400            411            3168           281            1.2931826e-12
        99   21.159927           4336   400            411            3239           286            1.3107693e-12
       100   21.639118           4419   400            411            3319           289            1.3286337e-12
       101   22.069104           4509   400            411            3406           292            1.3476626e-12
       102   22.487687           4584   400            410            3476           298            1.3677183e-12
       103   22.900946           4683   400            410            3573           300            1.3888367e-12
       104   23.322136           4780   400            410            3669           301            1.4107204e-12
       105   23.732294           4860   400            410            3745           305            1.4332504e-12
       106   24.14706            4958   400            410            3840           308            1.4561313e-12
       107   24.5132             5065   400            410            3941           314            1.4789469e-12
       108   24.90411            5165   399            410            4031           325            1.5012894e-12
       109   25.289046           5251   399            410            4098           344            1.5233472e-12
       110   25.708828           5360   399            410            4198           353            1.5451289e-12
       111   26.156114           5470   399            410            4291           370            1.5671684e-12
       112   26.624634           5570   399            410            4374           387            1.5896842e-12
       113   27.062483           5668   399            410            4447           412            1.6134087e-12
       114   27.520403           5782   399            410            4537           436            1.6379873e-12
       115   27.979605           5904   399            410            4643           452            1.6638356e-12
       116   28.441249           6016   399            410            4731           476            1.6910646e-12
       117   28.886604           6148   399            410            4833           506            1.719242e-12 
       118   29.332552           6275   399            409            4928           539            1.7478684e-12
       119   29.801008           6405   399            409            5022           575            1.7764332e-12
       120   30.302868           6527   399            409            5117           602            1.8049427e-12
       121   30.768733           6647   399            409            5196           643            1.8333635e-12
       122   31.261142           6773   399            409            5288           677            1.8620421e-12
       123   31.743078           6931   399            408            5402           722            1.8913365e-12
       124   32.226184           7065   399            408            5497           761            1.9221472e-12
       125   32.756357           7224   399            408            5600           817            1.9540683e-12
       126   33.271793           7358   399            408            5695           856            1.9882927e-12
       127   33.77213            7511   399            408            5795           909            2.0238299e-12
       128   34.280475           7659   399            408            5893           959            2.0602129e-12
       129   34.825551           7807   399            408            6008           992            2.0972959e-12
       130   35.372866           7977   399            406            6133           1039           2.1341679e-12
       131   35.914272           8129   399            406            6243           1081           2.1708823e-12
       132   36.539056           8292   399            406            6367           1120           2.2082447e-12
       133   37.151242           8466   399            406            6503           1158           2.2475175e-12
       134   37.772986           8645   399            405            6640           1201           2.2885669e-12
       135   38.355441           8824   399            404            6776           1245           2.3316755e-12
       136   38.981395           9019   399            404            6932           1284           2.3771205e-12
       137   39.612386           9227   399            404            7095           1329           2.4246467e-12
       138   40.244275           9426   399            404            7264           1359           2.4728865e-12
       139   40.883595           9640   398            404            7428           1410           2.5217251e-12
       140   41.611576           9840   398            404            7586           1452           2.5709551e-12
       141   42.304826          10036   398            404            7731           1503           2.6216778e-12
       142   43.025541          10276   398            404            7929           1545           2.6740867e-12
       143   43.812667          10488   398            403            8111           1576           2.7301596e-12
       144   44.620352          10726   398            403            8300           1625           2.7898864e-12
       145   45.372365          10962   398            402            8497           1665           2.8528313e-12
       146   46.182843          11243   397            401            8727           1718           2.9182292e-12
       147   47.084653          11509   397            401            8949           1762           2.9855698e-12
       148   48.007092          11769   397            400            9170           1802           3.0552637e-12
       149   49.002502          12039   397            400            9398           1844           3.12704e-12  
       150   50.071175          12332   396            400            9623           1913           3.2028223e-12
       151   51.178837          12660   396            398            9902           1964           3.2884048e-12
       152   52.430514          12999   396            396            10195          2012           3.3815391e-12
       153   53.712827          13335   396            395            10475          2069           3.4829389e-12
       154   55.04935           13721   395            395            10811          2120           3.5953232e-12
       155   56.806877          14136   395            395            11184          2162           3.7179203e-12
       156   58.428152          14544   395            395            11550          2204           3.8476358e-12
       157   60.558426          14997   395            395            11959          2248           3.9817071e-12
       158   62.727643          15449   395            394            12365          2295           4.1226611e-12
       159   64.94689           15964   395            394            12845          2330           4.2613362e-12
       160   67.282068          16430   395            394            13257          2384           4.392842e-12 
       161   69.618548          16875   395            394            13659          2427           4.5321091e-12
       162   72.02334           17367   395            394            14100          2478           4.6799046e-12
       163   74.488314          17914   394            394            14604          2522           4.8329181e-12
       164   76.987723          18441   394            393            15072          2582           4.9843326e-12
       165   79.52061           18946   394            392            15529          2631           5.1329938e-12
       166   82.11314           19475   394            392            15994          2695           5.2735102e-12
       167   84.734813          20010   394            392            16478          2746           5.4260845e-12
       168   87.407739          20552   394            392            16961          2805           5.5729611e-12
       169   90.081367          21041   394            392            17387          2868           5.7217031e-12
       170   92.850301          21640   394            392            17924          2930           5.8842207e-12
       171   95.553689          22245   394            391            18457          3003           6.0635101e-12
       172   98.296837          22879   393            390            18997          3099           6.241412e-12 
       173   101.03964          23521   391            389            19536          3205           6.4259678e-12
       174   103.7652           24174   390            388            20077          3319           6.6035714e-12
       175   106.50432          24831   390            385            20653          3403           6.7899608e-12
       176   109.25781          25535   387            382            21235          3531           6.9834721e-12
       177   111.99173          26243   387            381            21824          3651           7.1857955e-12
       178   114.70729          26994   387            379            22456          3772           7.3986526e-12
       179   117.41737          27711   386            377            23062          3886           7.587048e-12 
       180   120.21439          28437   385            371            23653          4028           7.7878045e-12
       181   122.94453          29276   383            368            24327          4198           8.0115255e-12
       182   125.64216          30024   381            364            24909          4370           8.2276148e-12
       183   128.33038          30776   381            359            25478          4558           8.4128066e-12
       184   131.02428          31592   379            354            26092          4767           8.6398895e-12
       185   133.76471          32407   371            349            26703          4984           8.8574498e-12
       186   136.4696           33259   369            348            27354          5188           9.0775115e-12
       187   139.19249          34081   364            342            27977          5398           9.2932715e-12
       188   141.91014          34902   359            336            28567          5640           9.4840063e-12
       189   144.58896          35661   355            327            29095          5884           9.6805186e-12
       190   147.36581          36491   349            321            29703          6118           9.8844943e-12
       191   150.0934           37277   342            312            30262          6361           1.0069409e-11
       192   152.85472          38083   335            305            30820          6623           1.0237442e-11
       193   155.62482          38877   323            295            31382          6877           1.0401462e-11
       194   158.34758          39583   309            281            31876          7117           1.0560559e-11
       195   161.09202          40382   296            270            32418          7398           1.0728885e-11
       196   163.87233          41070   284            260            32845          7681           1.0865309e-11
       197   166.66382          41718   265            238            33221          7994           1.0982361e-11
       198   169.43465          42427   237            221            33686          8283           1.107731e-11 
       199   172.19646          43064   217            195            34078          8574           1.1173495e-11
       200   175.11515          43669   204            171            34442          8852           1.1280667e-11
       201   177.93205          44254   179            147            34820          9108           1.1346798e-11
       202   180.77824          44811   151            130            35184          9346           1.1414127e-11
       203   183.62164          45391   133            112            35564          9582           1.1471567e-11
       204   186.43996          45978   115            94             35984          9785           1.1551937e-11
       205   189.30885          46508   101            77             36357          9973           1.1588262e-11
       206   192.15916          46995   83             60             36679          10173          1.1626132e-11
       207   195.05409          47474   72             41             36992          10369          1.1646469e-11
       208   197.94899          48003   53             30             37354          10566          1.1687769e-11
       209   200.88987          48546   40             21             37744          10741          1.1706343e-11
       210   203.96179          48913   33             13             37915          10952          1.1698525e-11
       211   206.9178           49385   27             7              38203          11148          1.1717794e-11
       212   209.89648          49818   19             5              38440          11354          1.1730135e-11
       213   212.92915          50258   16             4              38673          11565          1.1746539e-11
       214   215.9685           50746   11             4              38913          11818          1.1733006e-11
       215   218.97745          51196   6              3              39096          12091          1.173483e-11 
       216   222.04201          51500   5              1              39107          12387          1.1723169e-11
       217   225.10046          51972   4              0              39258          12710          1.1737063e-11
       218   228.2088           52364   4              0              39317          13043          1.1743206e-11
       219   231.31885          52739   4              0              39355          13380          1.1718986e-11
       220   234.5758           53243   2              0              39505          13736          1.174614e-11 
       221   237.74294          53530   2              0              39465          14063          1.171594e-11 
       222   240.89792          53968   2              0              39530          14436          1.1723817e-11
       223   244.1442           54287   2              0              39513          14772          1.1702242e-11
       224   247.36096          54685   2              0              39598          15085          1.1695767e-11
       225   250.6342           55068   2              0              39666          15400          1.168112e-11 
       226   253.89863          55521   2              0              39789          15730          1.1692391e-11
       227   257.16468          55917   2              0              39867          16048          1.1708303e-11
       228   260.54916          56207   2              0              39846          16359          1.1690567e-11
       229   263.89264          56563   2              0              39896          16665          1.1674384e-11
       230   267.42112          56938   2              0              39999          16937          1.1665055e-11
       231   270.84589          57305   2              0              40086          17217          1.1643289e-11
       232   274.26083          57765   2              0              40283          17480          1.1694106e-11
       233   277.73156          58075   2              0              40334          17739          1.1667387e-11
       234   281.24229          58358   2              0              40368          17988          1.1637148e-11
       235   284.75645          58750   2              0              40498          18250          1.1629172e-11
       236   288.30664          59128   2              0              40590          18536          1.1629914e-11
       237   291.84138          59585   2              0              40742          18841          1.1658937e-11
       238   295.44044          59811   2              0              40652          19157          1.163025e-11 
       239   299.07503          60205   2              0              40724          19479          1.1641338e-11
       240   302.88819          60552   2              0              40718          19832          1.1640708e-11
       241   306.61383          60905   2              0              40720          20183          1.1620099e-11
       242   310.31087          61262   2              0              40734          20526          1.1608733e-11
       243   314.03835          61559   2              0              40625          20932          1.1614488e-11
       244   317.81502          61883   2              0              40580          21301          1.1612345e-11
       245   321.60334          62221   2              0              40551          21668          1.1613197e-11
       246   325.43331          62529   2              0              40421          22106          1.1595598e-11
       247   329.26806          62911   2              0              40369          22540          1.159044e-11 
       248   333.16802          63250   2              0              40272          22976          1.158309e-11 
       249   337.07331          63498   2              0              40110          23386          1.158797e-11 
       250   340.97495          63917   2              0              40082          23833          1.1624615e-11
       251   344.92977          64129   2              0              39843          24284          1.1584036e-11
       252   348.74914          64560   2              0              39806          24752          1.160596e-11 
       253   352.7872           64899   2              0              39662          25235          1.1619143e-11
       254   356.73486          65301   2              0              39585          25714          1.1627535e-11
       255   360.6683           65556   2              0              39379          26175          1.1630295e-11
       256   364.60048          65896   2              0              39245          26649          1.1638206e-11
       257   368.66487          66211   2              0              39086          27123          1.163477e-11 
       258   372.77028          66478   2              0              38843          27633          1.1623786e-11
       259   376.94702          66737   2              0              38645          28090          1.1596518e-11
       260   381.14603          67139   2              0              38550          28587          1.1637769e-11
       261   385.37562          67376   2              0              38316          29058          1.1622586e-11
       262   389.42175          67731   2              0              38205          29524          1.1634056e-11
       263   393.54492          68114   2              0              38139          29973          1.1665469e-11
       264   397.73898          68367   2              0              37933          30432          1.1669463e-11
       265   401.9009           68719   2              0              37839          30878          1.1679781e-11
       266   406.11788          69075   2              0              37743          31330          1.1686161e-11
       267   410.34878          69385   2              0              37597          31786          1.1710088e-11
       268   414.69964          69625   2              0              37382          32241          1.1692038e-11
       269   418.99954          69980   2              0              37295          32683          1.1723453e-11
       270   423.47413          70276   2              0              37110          33164          1.1730029e-11
       271   427.81767          70610   2              0              37040          33568          1.1735995e-11
       272   432.21123          70937   2              0              36958          33977          1.175084e-11 
       273   436.73866          71166   2              0              36758          34406          1.1745573e-11
       274   441.14523          71485   2              0              36686          34797          1.1744707e-11
       275   445.58266          71825   2              0              36671          35152          1.1796464e-11
       276   450.05794          72150   2              0              36592          35556          1.1798282e-11
       277   454.54563          72484   2              0              36573          35909          1.1790523e-11
       278   459.07776          72732   2              0              36450          36280          1.1799221e-11
       279   463.61188          73071   2              0              36436          36633          1.183841e-11 
       280   468.33324          73338   2              0              36328          37008          1.1836003e-11
       281   472.9056           73698   2              0              36352          37344          1.1861066e-11
       282   477.50609          73990   2              0              36310          37678          1.1867786e-11
       283   482.16083          74335   2              0              36298          38035          1.186714e-11 
       284   486.83282          74586   2              0              36209          38375          1.186585e-11 
       285   491.5366           74922   2              0              36174          38746          1.1883448e-11
       286   496.32097          75126   2              0              36055          39069          1.1878975e-11
       287   501.04222          75412   2              0              35993          39417          1.1879193e-11
       288   505.93499          75702   2              0              35942          39758          1.1866387e-11
       289   510.68654          76017   2              0              35910          40105          1.188657e-11 
       290   515.65058          76258   2              0              35794          40462          1.1896617e-11
       291   520.45765          76612   2              0              35815          40795          1.1909846e-11
       292   525.35008          76894   2              0              35758          41134          1.1912674e-11
       293   530.26769          77165   2              0              35703          41460          1.1929815e-11
       294   535.24045          77495   2              0              35704          41789          1.1935158e-11
       295   540.18737          77788   2              0              35673          42113          1.1951788e-11
       296   545.17881          78145   2              0              35692          42451          1.1978947e-11
       297   550.17872          78427   2              0              35650          42775          1.1990029e-11
       298   555.2254           78711   2              0              35616          43093          1.2011586e-11
       299   560.32201          78959   2              0              35578          43379          1.2010578e-11
       300   565.61142          79325   2              0              35665          43658          1.2029351e-11
       301   570.72424          79683   2              0              35749          43932          1.2059669e-11
       302   575.98245          79871   2              0              35631          44238          1.2025404e-11
       303   581.1597           80151   2              0              35638          44511          1.204981e-11 
       304   586.33801          80402   2              0              35586          44814          1.2046698e-11
       305   591.54465          80689   2              0              35564          45123          1.2046739e-11
       306   596.82237          80973   2              0              35545          45426          1.2063947e-11
       307   602.06347          81301   2              0              35580          45719          1.2084484e-11
       308   607.33084          81692   2              0              35688          46002          1.210538e-11 
       309   612.6249           81972   2              0              35650          46320          1.2119075e-11
       310   618.21477          82213   2              0              35549          46662          1.2125273e-11
       311   623.55752          82419   2              0              35461          46956          1.2129348e-11
       312   628.98988          82743   2              0              35471          47270          1.2151199e-11
       313   634.48409          83102   2              0              35520          47580          1.2154867e-11
       314   640.01111          83348   2              0              35478          47868          1.2162802e-11
       315   645.50812          83584   2              0              35412          48170          1.2160479e-11
       316   650.95929          83956   2              0              35474          48480          1.2180309e-11
       317   656.47383          84216   2              0              35425          48789          1.2203993e-11
       318   662.02868          84511   2              0              35453          49056          1.2211985e-11
       319   667.57086          84738   2              0              35384          49352          1.2205121e-11
       320   673.29917          85056   2              0              35389          49665          1.2220418e-11
Loop time of 673.299 on 16 procs for 320 steps with 85056 atoms

98.0% CPU use with 16 MPI tasks x 1 OpenMP threads

MPI task timing breakdown:
Section |  min time  |  avg time  |  max time  |%varavg| %total
---------------------------------------------------------------
Pair    | 142.8      | 188.14     | 275.86     | 290.3 | 27.94
Neigh   | 26.269     | 46.218     | 106.15     | 342.7 |  6.86
Comm    | 72.162     | 93.805     | 123.36     | 165.0 | 13.93
Output  | 2.6743     | 2.6744     | 2.6755     |   0.0 |  0.40
Modify  | 158.78     | 315.78     | 396.59     | 396.1 | 46.90
Other   |            | 26.68      |            |       |  3.96

Nlocal:           5316 ave       10275 max        4025 min
Histogram: 10 2 0 2 0 0 0 0 0 2
Nghost:        4136.25 ave        6478 max        3127 min
Histogram: 8 2 0 2 0 0 2 0 0 2
Neighs:        46252.2 ave       59247 max       39066 min
Histogram: 2 5 1 2 2 1 1 0 0 2

Total # of neighbors = 740035
Ave neighs/atom = 8.700562
Neighbor list builds = 5268
Dangerous builds = 407

Total wall time: 0:11:41
