NUFEB Simulation

     150 atoms
     4 atom types

  0.0e+00   6.00e-05  xlo xhi
  0.0e+00   6.00e-05  ylo yhi
  0.0e+00   6.00e-05  zlo zhi

Atoms

1 1 1.67e-06 500 2.63e-05 2.72e-05 1.67e-06 1.67e-06
2 1 1.77e-06 500 5.32e-05 1.63e-05 1.77e-06 1.77e-06
3 1 1.28e-06 500 4.06e-05 5.21e-05 1.28e-06 1.28e-06
4 1 1.74e-06 500 3.60e-05 6.18e-06 1.74e-06 1.74e-06
5 1 1.51e-06 500 1.91e-05 3.38e-05 1.51e-06 1.51e-06
6 1 1.06e-06 500 2.46e-05 1.99e-05 1.06e-06 1.06e-06
7 1 1.85e-06 500 4.37e-05 3.17e-05 1.85e-06 1.85e-06
8 1 1.44e-06 500 3.70e-05 6.15e-06 1.44e-06 1.44e-06
9 1 1.51e-06 500 5.87e-06 3.33e-05 1.51e-06 1.51e-06
10 1 1.51e-06 500 3.06e-05 2.28e-05 1.51e-06 1.51e-06
11 1 1.33e-06 500 2.84e-05 1.37e-05 1.33e-06 1.33e-06
12 1 1.41e-06 500 3.04e-05 2.93e-05 1.41e-06 1.41e-06
13 1 1.46e-06 500 3.44e-05 2.91e-05 1.46e-06 1.46e-06
14 1 1.65e-06 500 4.26e-05 1.35e-05 1.65e-06 1.65e-06
15 1 1.80e-06 500 2.30e-06 4.33e-05 1.80e-06 1.80e-06
16 1 1.26e-06 500 5.31e-05 1.05e-05 1.26e-06 1.26e-06
17 1 1.03e-06 500 3.57e-05 3.93e-05 1.03e-06 1.03e-06
18 1 1.66e-06 500 4.16e-05 1.70e-05 1.66e-06 1.66e-06
19 1 1.41e-06 500 9.06e-06 3.20e-05 1.41e-06 1.41e-06
20 1 1.52e-06 500 1.95e-05 1.39e-05 1.52e-06 1.52e-06
21 1 1.16e-06 500 9.29e-06 5.05e-05 1.16e-06 1.16e-06
22 1 1.21e-06 500 1.68e-05 3.05e-05 1.21e-06 1.21e-06
23 1 1.42e-06 500 5.30e-05 4.85e-05 1.42e-06 1.42e-06
24 1 1.07e-06 500 3.32e-05 2.76e-05 1.07e-06 1.07e-06
25 1 1.16e-06 500 4.35e-06 5.87e-05 1.16e-06 1.16e-06
26 1 1.26e-06 500 4.77e-05 3.58e-05 1.26e-06 1.26e-06
27 1 1.36e-06 500 4.84e-05 2.04e-05 1.36e-06 1.36e-06
28 1 1.66e-06 500 3.91e-05 5.80e-05 1.66e-06 1.66e-06
29 1 1.83e-06 500 4.69e-05 1.38e-05 1.83e-06 1.83e-06
30 1 1.12e-06 500 3.82e-06 3.10e-05 1.12e-06 1.12e-06
31 1 1.38e-06 500 3.68e-06 3.98e-05 1.38e-06 1.38e-06
32 1 1.72e-06 500 3.82e-05 8.78e-06 1.72e-06 1.72e-06
33 1 1.08e-06 500 4.87e-05 3.26e-05 1.08e-06 1.08e-06
34 1 1.45e-06 500 3.54e-05 1.29e-05 1.45e-06 1.45e-06
35 1 1.59e-06 500 4.87e-05 5.68e-05 1.59e-06 1.59e-06
36 1 1.02e-06 500 3.33e-05 2.57e-05 1.02e-06 1.02e-06
37 1 1.18e-06 500 2.29e-05 1.92e-05 1.18e-06 1.18e-06
38 1 1.49e-06 500 1.33e-05 5.77e-05 1.49e-06 1.49e-06
39 1 1.29e-06 500 4.89e-05 3.96e-05 1.29e-06 1.29e-06
40 1 1.23e-06 500 3.84e-05 3.06e-05 1.23e-06 1.23e-06
41 1 1.90e-06 500 4.90e-05 5.36e-05 1.90e-06 1.90e-06
42 1 1.28e-06 500 4.29e-05 4.88e-05 1.28e-06 1.28e-06
43 1 1.52e-06 500 3.31e-06 4.43e-05 1.52e-06 1.52e-06
44 1 1.32e-06 500 4.53e-05 4.67e-05 1.32e-06 1.32e-06
45 1 1.24e-06 500 3.17e-05 5.61e-05 1.24e-06 1.24e-06
46 1 1.44e-06 500 5.53e-05 5.51e-05 1.44e-06 1.44e-06
47 1 1.36e-06 500 4.26e-05 3.44e-05 1.36e-06 1.36e-06
48 1 1.71e-06 500 3.91e-05 1.63e-05 1.71e-06 1.71e-06
49 1 1.17e-06 500 5.42e-05 2.03e-06 1.17e-06 1.17e-06
50 1 1.60e-06 500 3.87e-05 2.61e-05 1.60e-06 1.60e-06
51 2 1.17e-06 500 1.68e-06 3.32e-05 1.17e-06 1.17e-06
52 2 1.10e-06 500 3.39e-05 4.88e-05 1.10e-06 1.10e-06
53 2 1.49e-06 500 9.91e-06 1.28e-05 1.49e-06 1.49e-06
54 2 1.20e-06 500 2.40e-05 4.24e-05 1.20e-06 1.20e-06
55 2 1.24e-06 500 7.25e-06 4.27e-05 1.24e-06 1.24e-06
56 2 1.36e-06 500 4.24e-06 5.16e-05 1.36e-06 1.36e-06
57 2 1.51e-06 500 1.95e-05 2.90e-05 1.51e-06 1.51e-06
58 2 1.47e-06 500 3.44e-05 1.76e-05 1.47e-06 1.47e-06
59 2 1.27e-06 500 4.02e-05 5.24e-05 1.27e-06 1.27e-06
60 2 1.41e-06 500 3.06e-05 2.01e-05 1.41e-06 1.41e-06
61 2 1.74e-06 500 3.60e-06 4.50e-05 1.74e-06 1.74e-06
62 2 1.69e-06 500 3.82e-05 5.82e-05 1.69e-06 1.69e-06
63 2 1.72e-06 500 5.73e-05 4.73e-05 1.72e-06 1.72e-06
64 2 1.68e-06 500 7.72e-06 2.46e-05 1.68e-06 1.68e-06
65 2 1.11e-06 500 2.35e-05 1.50e-05 1.11e-06 1.11e-06
66 2 1.38e-06 500 4.69e-06 4.00e-05 1.38e-06 1.38e-06
67 2 1.01e-06 500 6.85e-06 2.53e-05 1.01e-06 1.01e-06
68 2 1.58e-06 500 1.14e-05 4.52e-05 1.58e-06 1.58e-06
69 2 1.89e-06 500 1.81e-05 4.32e-05 1.89e-06 1.89e-06
70 2 1.20e-06 500 9.83e-06 8.98e-06 1.20e-06 1.20e-06
71 2 1.49e-06 500 1.57e-06 1.39e-05 1.49e-06 1.49e-06
72 2 1.32e-06 500 1.94e-05 5.68e-05 1.32e-06 1.32e-06
73 2 1.23e-06 500 5.18e-05 3.43e-05 1.23e-06 1.23e-06
74 2 1.94e-06 500 4.54e-05 1.58e-05 1.94e-06 1.94e-06
75 2 1.89e-06 500 7.32e-06 3.92e-05 1.89e-06 1.89e-06
76 2 1.06e-06 500 4.57e-05 4.87e-05 1.06e-06 1.06e-06
77 2 1.89e-06 500 4.91e-05 3.18e-05 1.89e-06 1.89e-06
78 2 1.49e-06 500 5.35e-05 4.57e-05 1.49e-06 1.49e-06
79 2 1.16e-06 500 4.19e-05 1.00e-05 1.16e-06 1.16e-06
80 2 1.96e-06 500 2.43e-05 2.38e-05 1.96e-06 1.96e-06
81 2 1.11e-06 500 1.80e-05 5.55e-05 1.11e-06 1.11e-06
82 2 1.09e-06 500 2.55e-05 2.11e-05 1.09e-06 1.09e-06
83 2 1.44e-06 500 3.48e-05 2.24e-05 1.44e-06 1.44e-06
84 2 1.93e-06 500 4.61e-05 5.13e-05 1.93e-06 1.93e-06
85 2 1.98e-06 500 1.75e-05 5.67e-06 1.98e-06 1.98e-06
86 2 1.99e-06 500 2.85e-05 5.26e-05 1.99e-06 1.99e-06
87 2 1.30e-06 500 2.43e-05 2.63e-05 1.30e-06 1.30e-06
88 2 1.16e-06 500 3.82e-05 5.64e-05 1.16e-06 1.16e-06
89 2 1.49e-06 500 3.71e-05 6.27e-06 1.49e-06 1.49e-06
90 2 1.04e-06 500 2.51e-05 1.29e-05 1.04e-06 1.04e-06
91 2 1.68e-06 500 8.89e-06 8.28e-06 1.68e-06 1.68e-06
92 2 1.29e-06 500 5.43e-05 5.17e-05 1.29e-06 1.29e-06
93 2 1.70e-06 500 3.05e-05 4.10e-05 1.70e-06 1.70e-06
94 2 1.64e-06 500 2.28e-05 5.57e-05 1.64e-06 1.64e-06
95 2 1.04e-06 500 1.76e-05 4.21e-05 1.04e-06 1.04e-06
96 2 1.21e-06 500 4.68e-06 4.00e-05 1.21e-06 1.21e-06
97 2 1.77e-06 500 3.87e-05 1.65e-05 1.77e-06 1.77e-06
98 2 1.58e-06 500 3.31e-05 3.35e-05 1.58e-06 1.58e-06
99 2 1.17e-06 500 3.34e-05 6.90e-06 1.17e-06 1.17e-06
100 2 1.23e-06 500 1.68e-05 3.49e-05 1.23e-06 1.23e-06
101 3 1.31e-06 500 3.13e-05 1.29e-05 1.31e-06 1.31e-06
102 3 1.90e-06 500 6.15e-06 2.74e-05 1.90e-06 1.90e-06
103 3 1.16e-06 500 2.93e-05 1.37e-05 1.16e-06 1.16e-06
104 3 1.63e-06 500 1.58e-05 4.57e-05 1.63e-06 1.63e-06
105 3 1.57e-06 500 2.55e-05 4.07e-05 1.57e-06 1.57e-06
106 3 1.14e-06 500 5.14e-05 3.53e-05 1.14e-06 1.14e-06
107 3 1.30e-06 500 3.42e-05 6.05e-06 1.30e-06 1.30e-06
108 3 1.24e-06 500 5.82e-05 1.38e-05 1.24e-06 1.24e-06
109 3 1.92e-06 500 4.27e-05 1.49e-05 1.92e-06 1.92e-06
110 3 1.90e-06 500 1.35e-05 1.61e-05 1.90e-06 1.90e-06
111 3 1.03e-06 500 2.25e-06 3.67e-05 1.03e-06 1.03e-06
112 3 1.09e-06 500 2.57e-06 1.51e-05 1.09e-06 1.09e-06
113 3 1.30e-06 500 5.04e-05 6.87e-06 1.30e-06 1.30e-06
114 3 1.01e-06 500 1.51e-05 9.58e-06 1.01e-06 1.01e-06
115 3 1.19e-06 500 4.98e-05 3.05e-05 1.19e-06 1.19e-06
116 3 1.36e-06 500 2.86e-05 6.86e-06 1.36e-06 1.36e-06
117 3 1.70e-06 500 2.67e-05 4.82e-05 1.70e-06 1.70e-06
118 3 1.38e-06 500 3.06e-05 1.55e-05 1.38e-06 1.38e-06
119 3 1.35e-06 500 4.65e-05 4.89e-05 1.35e-06 1.35e-06
120 3 1.10e-06 500 4.92e-05 1.20e-05 1.10e-06 1.10e-06
121 3 1.76e-06 500 3.93e-05 1.19e-05 1.76e-06 1.76e-06
122 3 1.58e-06 500 8.29e-06 2.44e-05 1.58e-06 1.58e-06
123 3 1.82e-06 500 1.50e-05 9.97e-06 1.82e-06 1.82e-06
124 3 1.18e-06 500 6.02e-06 3.32e-05 1.18e-06 1.18e-06
125 3 1.20e-06 500 3.35e-05 3.47e-05 1.20e-06 1.20e-06
126 3 1.58e-06 500 1.91e-05 1.22e-05 1.58e-06 1.58e-06
127 3 1.26e-06 500 1.47e-05 4.79e-06 1.26e-06 1.26e-06
128 3 1.32e-06 500 3.24e-05 8.10e-06 1.32e-06 1.32e-06
129 3 1.91e-06 500 3.30e-05 1.40e-05 1.91e-06 1.91e-06
130 3 1.88e-06 500 4.02e-05 3.25e-05 1.88e-06 1.88e-06
131 3 1.39e-06 500 3.04e-05 4.25e-05 1.39e-06 1.39e-06
132 3 1.77e-06 500 9.62e-06 4.60e-05 1.77e-06 1.77e-06
133 3 1.69e-06 500 5.44e-05 1.79e-06 1.69e-06 1.69e-06
134 3 1.41e-06 500 3.50e-05 2.74e-05 1.41e-06 1.41e-06
135 3 1.94e-06 500 7.39e-06 5.21e-05 1.94e-06 1.94e-06
136 3 1.77e-06 500 3.45e-05 1.84e-05 1.77e-06 1.77e-06
137 3 1.96e-06 500 9.90e-06 2.99e-05 1.96e-06 1.96e-06
138 3 1.11e-06 500 4.12e-06 1.47e-05 1.11e-06 1.11e-06
139 3 1.97e-06 500 1.42e-05 6.62e-06 1.97e-06 1.97e-06
140 3 1.25e-06 500 4.02e-05 1.80e-05 1.25e-06 1.25e-06
141 3 1.23e-06 500 1.67e-06 2.21e-05 1.23e-06 1.23e-06
142 3 1.23e-06 500 2.63e-05 4.61e-05 1.23e-06 1.23e-06
143 3 1.12e-06 500 2.86e-05 8.22e-06 1.12e-06 1.12e-06
144 3 1.89e-06 500 2.15e-05 1.53e-05 1.89e-06 1.89e-06
145 3 1.94e-06 500 3.83e-06 1.13e-05 1.94e-06 1.94e-06
146 3 1.44e-06 500 3.50e-05 6.73e-06 1.44e-06 1.44e-06
147 3 1.13e-06 500 1.47e-05 2.55e-05 1.13e-06 1.13e-06
148 3 1.72e-06 500 4.42e-05 2.24e-05 1.72e-06 1.72e-06
149 3 1.47e-06 500 2.52e-05 2.71e-05 1.47e-06 1.47e-06
150 3 1.07e-06 500 2.43e-05 3.99e-05 1.07e-06 1.07e-06
