LAMMPS (23 Jun 2022 - Update 4)
  using 1 OpenMP thread(s) per MPI task
package omp 0
using multi-threaded neighbor list subroutines
#-----------------------------------------------------------------------------#
#                NUFEB Simulation: Heterotrophic Biofilm Growth               #
#-----------------------------------------------------------------------------#


#-----------------------------System Settings---------------------------------#

units si                                    # using si units (m, s, kg)
atom_style      coccus                      # using nufeb coccus atom style
atom_modify     map array sort 10 0         # map array - find atoms using indices
		                            # sort every 10

boundary        pp pp ff                    # periodic boundaries in x and y
                                            # fixed boundary in z

newton          off                         # forces between local and ghost
                                            # atoms are computed in each
					     # processor without communication

processors      * * 1                       # processor grid

comm_modify     vel yes                     # communicate velocities for ghost atoms

read_data       atom_ch.in	             # read atom.in file which defines domain size
Reading data file ...
  orthogonal box = (0 0 0) to (6e-05 6e-05 6e-05)
  4 by 4 by 1 MPI processor grid
  reading atoms ...
  150 atoms
  read_data CPU = 0.028 seconds
                                            # and initial atoms


#--------------------Microbes and Functional Groups-------------------------#

group           CROSS1   type 1               # assign type 1,2 atoms to CROSS group
50 atoms in group CROSS1
group           CROSS2   type 2
50 atoms in group CROSS2
group		CHEATER  type 3
50 atoms in group CHEATER
group           dead     type 4
0 atoms in group dead
group		EPS	 type 5
0 atoms in group EPS

neighbor        5e-7 bin                   # setting neighbour skin distance and style

neigh_modify    check yes                  # rebuild neighbour list if any atom
                                           # had moved more than half the skin distance


#--------------------------Mesh Grid and Substrates--------------------------#

# defining grid sytle, substrate names, and grid size
grid_style      nufeb/chemostat 3 sub metab1 metab2 5e-6

# set diffusion boundary conditions and initial concentrations (liquid:kg/m3)
grid_modify     set sub      pp pp nd  1.8e-4
No /omp style for force computation currently active
grid_modify     set metab1   pp pp nd  1e-4
No /omp style for force computation currently active
grid_modify     set metab2   pp pp nd  1e-4
No /omp style for force computation currently active


#--------------------------Biological Processes-------------------------------#

# heterotrophs growth
fix growth_cross1 CROSS1 nufeb/growth/cross1 sub 3.5e-5 metab2 4e-3 metab1 growth 0.009 yield 0.6 decay 2.6e-6 metab1_exp 20 epsyield 0.12 epsdens 30

fix growth_cross2 CROSS2 nufeb/growth/cross2 sub 3.5e-5 metab1 4e-3 metab2 growth 0.009 yield 0.6 decay 2.6e-6 metab2_exp 20 epsyield 0.12 epsdens 30

fix growth_cheater CHEATER nufeb/growth/cheater sub 3.5e-5 metab1 1e-3 metab2 1e-3 growth 0.009 yield 0.6 decay 2.6e-6

# heterotrophs division, division diameter: 1.36e-6
fix div1 CROSS1 nufeb/division/coccus 1.36e-6 944
fix div2 CROSS2 nufeb/division/coccus 1.36e-6 3470
fix div3 CHEATER nufeb/division/coccus 1.36e-6 7678

fix death1 CROSS1 nufeb/death/diameter dead 5.43e-7
fix death2 CROSS2 nufeb/death/diameter dead 5.43e-7
fix death3 CHEATER nufeb/death/diameter dead 5.43e-7

# EPS secretion from heterotrophs
fix eps1 CROSS1 nufeb/eps_secretion 5 EPS 1.1 30 13568
fix eps2 CROSS2 nufeb/eps_secretion 5 EPS 1.1 30 21140

#---------------------------Physical Processes--------------------------------#

pair_style  gran/hooke/history 1e-4 NULL 1e-5 NULL 0.0 0    # pairwise interaction
pair_coeff  * *                                             # between atoms

# pairwise interaction between z-wall and atoms
fix wall all wall/gran hooke/history 1e-3 NULL 1e-4 NULL 0 0 zplane 0.0 1e-04

fix vis all viscous 1e-5                                    # viscous damping force

fix grav all gravity 9.81 vector 0.0 0.0 -1.0

fix nve all nve/limit 1e-7                                  # NVE integration with
                                                            # maximum distance limit


#---------------------------Post-Physical Processes---------------------------#

fix coeff_sub all nufeb/diffusion_coeff sub ratio 0.8       # defining diffusion coeff in the biofilm
fix coeff_metab1 all nufeb/diffusion_coeff metab1 ratio 0.8    # region is 80% of the value in liquid
fix coeff_metab2 all nufeb/diffusion_coeff metab2 ratio 0.8

#---------------------------Chemical Processes---------------------------------#

fix diff_sub all nufeb/diffusion_reaction sub 1e-9        # diffusion reaction for updating
fix diff_metab1 all nufeb/diffusion_reaction metab1 4e-9     # distribusion of substrate concentration
fix diff_metab2 all nufeb/diffusion_reaction metab2 4e-9

#--------------------------Computations and Outputs----------------------------#

variable mass equal "mass(all)"                             # total mass
variable ncross1 equal "count(CROSS1)"                      # total # of CROSS1
variable ncross2 equal "count(CROSS2)"                      # total # of CROSS2
variable ncheater equal "count(CHEATER)"
variable ndead equal "count(dead)"
variable neps equal "count(EPS)"

shell mkdir vtk_EPS_ch                                            # dump vtk files to /vtk folder
dump du1 all vtk 10 vtk_EPS_ch/dump*.vtu id type diameter         # require build NUFEB with vtk option
dump du2 all grid/vtk 10 vtk_EPS_ch/dump_%_*.vti con rea den gro

#dump du3 all movie 10 movie.avi type diameter view 80 60    # dump video
#dump_modify du3 acolor 1 blue acolor 2 lightgrey framerate 10


                                                            # dump hdf5 files to /hdf5 folder
#shell mkdir hdf5                                           # require build NUFEB with hdf5 option
#dump du3 all nufeb/hdf5 10 dump.h5 id type x y z vx vy vz fx fy fz radius conc reac

thermo_style custom step cpu atoms v_ncross1 v_ncross2 v_ncheater v_ndead v_neps v_mass     # screen and log outputs
thermo 1
thermo_modify   lost ignore

#-----------------------------------Run----------------------------------------#

# issue run command, define timesteps for physical (pairdt) and chemical (diffdt) processes
run_style nufeb diffdt 1e-4 difftol 1e-6 pairdt 1e-2 pairtol 1 pairmax 1000 diffmax 5000

timestep 12000                                               # define biological timesteps (1000s)

run 320                                                    # growing biofilm for 900x1000s
Generated 0 of 6 mixed pair_coeff terms from geometric mixing rule
Last active /omp style is pair_style gran/hooke/history/omp
Neighbor list info ...
  update every 1 steps, delay 10 steps, check yes
  max neighbors/atom: 2000, page size: 100000
  master list distance cutoff = 2.49e-06
  ghost atom cutoff = 2.49e-06
  binsize = 1.245e-06, bins = 49 49 49
  1 neighbor lists, perpetual/occasional/extra = 1 0 0
  (1) pair gran/hooke/history/omp, perpetual
      attributes: half, newton off, size, history, omp
      pair build: half/size/bin/newtoff/omp
      stencil: full/bin/3d
      bin: standard
Per MPI rank memory allocation (min/avg/max) = 11.02 | 11.02 | 11.02 Mbytes
   Step          CPU          Atoms      v_ncross1      v_ncross2      v_ncheater      v_ndead         v_neps         v_mass    
         0   0                    150   50             50             50             0              0              1.3295396e-13
         1   0.39169196           432   90             85             86             0              171            1.7259893e-13
         2   0.77429217           805   123            126            136            0              420            1.9544717e-13
         3   1.0877209           1119   128            143            181            0              667            2.1485678e-13
         4   1.4059985           1434   139            149            203            0              943            2.3273855e-13
         5   1.6235189           1738   140            154            222            0              1222           2.5036434e-13
         6   1.7924021           2062   149            162            239            0              1512           2.6780044e-13
         7   1.9597343           2397   157            170            258            0              1812           2.8509838e-13
         8   2.1066438           2753   161            183            276            0              2133           3.0209723e-13
         9   2.2467807           3122   164            197            299            0              2462           3.1896796e-13
        10   2.4046163           3494   170            204            323            0              2797           3.3551836e-13
        11   2.5591843           3886   178            215            343            0              3150           3.5194746e-13
        12   2.6719903           4274   186            220            360            0              3508           3.6784474e-13
        13   2.7809631           4659   190            228            380            0              3861           3.8338589e-13
        14   2.9169175           5051   195            231            402            0              4223           3.9829175e-13
        15   3.0643951           5458   200            236            415            0              4607           4.129353e-13 
        16   3.1769818           5830   205            237            434            0              4954           4.2704096e-13
        17   3.3089304           6213   212            242            451            0              5308           4.4074024e-13
        18   3.4273033           6614   216            246            472            0              5680           4.5426683e-13
        19   3.5383371           6998   221            252            485            0              6040           4.6737034e-13
        20   6.4329305           7391   226            255            507            0              6403           4.8011727e-13
        21   6.5420293           7793   233            257            532            0              6771           4.9232413e-13
        22   6.6656954           8174   235            261            547            0              7131           5.0435968e-13
        23   6.7941226           8573   243            264            568            0              7498           5.1629432e-13
        24   6.9204863           8970   250            265            581            0              7874           5.2798329e-13
        25   7.0720926           9375   251            273            600            0              8251           5.3958695e-13
        26   7.2068231           9772   254            277            626            0              8615           5.5084593e-13
        27   7.3597627          10170   256            278            641            0              8995           5.6210594e-13
        28   7.4813256          10552   261            282            656            0              9353           5.7252731e-13
        29   7.604981           10944   264            287            672            0              9721           5.8284869e-13
        30   7.7711573          11351   267            290            686            0              10108          5.9283288e-13
        31   7.8979843          11729   268            294            704            0              10463          6.0268785e-13
        32   8.0555967          12154   270            296            728            0              10860          6.1278468e-13
        33   8.239586           12538   273            298            745            0              11222          6.2251826e-13
        34   8.4503127          12931   273            301            760            0              11597          6.3214698e-13
        35   8.6530543          13335   278            302            780            0              11975          6.4208814e-13
        36   8.8774327          13722   280            302            805            0              12335          6.5196122e-13
        37   9.0859073          14129   282            303            821            0              12723          6.6202553e-13
        38   9.3952387          14506   283            305            845            0              13073          6.7187298e-13
        39   9.6714618          14924   287            308            873            0              13456          6.8193124e-13
        40   10.033361          15312   288            309            891            0              13824          6.9175192e-13
        41   10.382173          15723   291            312            927            0              14193          7.0125157e-13
        42   10.942915          16097   293            312            945            0              14547          7.105773e-13 
        43   11.478688          16511   299            313            963            0              14936          7.2033987e-13
        44   12.236777          16907   304            316            984            0              15303          7.3016023e-13
        45   12.916368          17318   306            316            1016           0              15680          7.3981915e-13
        46   13.919648          17705   308            317            1039           0              16041          7.4945545e-13
        47   14.958731          18095   311            318            1054           0              16412          7.5900878e-13
        48   15.991803          18503   314            322            1068           0              16799          7.6867923e-13
        49   17.041454          18907   317            325            1093           0              17172          7.7831224e-13
        50   18.156357          19311   320            327            1114           0              17550          7.8784935e-13
        51   19.27475           19728   322            327            1155           0              17924          7.9729961e-13
        52   20.393201          20117   322            328            1174           0              18293          8.0719826e-13
        53   21.516556          20531   323            329            1208           0              18671          8.1683218e-13
        54   22.668673          20929   323            329            1238           0              19039          8.2620044e-13
        55   23.856715          21320   325            333            1258           0              19404          8.3561342e-13
        56   25.033863          21716   328            334            1280           1              19773          8.4510354e-13
        57   26.278234          22122   331            335            1306           1              20149          8.5471996e-13
        58   27.506099          22525   333            335            1343           1              20513          8.6462723e-13
        59   28.752247          22923   336            336            1370           3              20878          8.7438548e-13
        60   30.087774          23326   336            338            1400           6              21246          8.8426712e-13
        61   31.379578          23726   338            338            1423           8              21619          8.9433404e-13
        62   32.706421          24120   339            338            1449           10             21984          9.0412458e-13
        63   34.043362          24519   341            339            1471           16             22352          9.1409873e-13
        64   35.395855          24928   341            340            1505           18             22724          9.240535e-13 
        65   36.793931          25316   343            343            1530           21             23079          9.3395182e-13
        66   38.19505           25733   344            345            1556           27             23461          9.441008e-13 
        67   39.643111          26117   344            345            1583           31             23814          9.5394003e-13
        68   41.165537          26514   345            345            1614           35             24175          9.640301e-13 
        69   42.709031          26920   346            346            1645           42             24541          9.7491904e-13
        70   44.390004          27323   346            347            1682           46             24902          9.8601959e-13
        71   45.966596          27731   347            348            1717           55             25264          9.9771706e-13
        72   47.617022          28128   348            348            1737           63             25632          1.0097914e-12
        73   49.2614            28518   348            349            1772           73             25976          1.0222828e-12
        74   50.918432          28922   349            350            1815           76             26332          1.0351263e-12
        75   52.581896          29311   349            350            1848           81             26683          1.0480109e-12
        76   54.287458          29714   350            350            1887           94             27033          1.060765e-12 
        77   55.989904          30123   350            351            1924           106            27392          1.0737404e-12
        78   57.706             30533   350            351            1973           116            27743          1.086488e-12 
        79   59.452748          30920   350            351            2008           123            28088          1.0988321e-12
        80   61.34682           31321   351            351            2043           137            28439          1.1108819e-12
        81   63.210621          31715   351            351            2081           149            28783          1.1230649e-12
        82   65.169946          32121   352            352            2118           156            29143          1.1356672e-12
        83   67.184573          32512   354            352            2162           169            29475          1.1489959e-12
        84   69.266253          32945   355            352            2213           187            29838          1.1632283e-12
        85   71.369823          33313   355            352            2245           197            30164          1.1785483e-12
        86   73.503062          33718   355            352            2289           210            30512          1.1945718e-12
        87   75.64243           34109   355            353            2332           227            30842          1.2113389e-12
        88   77.796398          34538   357            354            2396           236            31195          1.2287991e-12
        89   79.988429          34929   358            354            2445           250            31522          1.2461698e-12
        90   82.294754          35349   359            354            2507           264            31865          1.2639689e-12
        91   84.523837          35742   359            355            2573           274            32181          1.2815908e-12
        92   86.783109          36150   360            356            2629           288            32517          1.2994178e-12
        93   89.077275          36540   360            356            2682           293            32849          1.3169868e-12
        94   91.456856          36935   361            356            2744           301            33173          1.3344404e-12
        95   93.917236          37344   361            356            2810           307            33510          1.3523244e-12
        96   96.433119          37740   361            356            2888           318            33817          1.3714141e-12
        97   98.983959          38144   361            356            2953           330            34144          1.3916239e-12
        98   101.59079          38553   362            356            3021           341            34473          1.4123862e-12
        99   104.22889          38952   363            356            3098           352            34783          1.4342049e-12
       100   106.99743          39354   363            358            3166           368            35099          1.456533e-12 
       101   109.70192          39774   363            358            3256           377            35420          1.4791017e-12
       102   112.40127          40208   363            358            3341           396            35750          1.5017844e-12
       103   115.159            40572   363            358            3417           411            36023          1.5237617e-12
       104   117.95367          40981   363            359            3488           425            36346          1.5458225e-12
       105   120.77376          41390   363            359            3565           439            36664          1.567557e-12 
       106   123.69774          41788   363            359            3643           461            36962          1.5887616e-12
       107   126.68917          42191   363            359            3720           475            37274          1.6100138e-12
       108   129.72572          42593   363            359            3795           490            37586          1.6321741e-12
       109   132.80913          43006   363            359            3884           505            37895          1.6556182e-12
       110   136.06352          43385   363            359            3966           518            38179          1.6796041e-12
       111   139.27047          43812   364            359            4065           530            38494          1.7047991e-12
       112   142.51801          44209   364            359            4158           541            38787          1.7304266e-12
       113   145.81461          44631   364            359            4253           561            39094          1.7564275e-12
       114   149.14008          45019   364            359            4326           591            39379          1.7823573e-12
       115   152.48472          45414   364            359            4404           608            39679          1.8080417e-12
       116   155.93434          45835   364            359            4501           627            39984          1.8330762e-12
       117   159.4036           46219   364            359            4584           647            40265          1.858138e-12 
       118   162.96823          46649   364            360            4684           671            40570          1.8831072e-12
       119   166.57711          47019   364            360            4751           694            40850          1.908295e-12 
       120   170.35449          47457   364            360            4856           715            41162          1.9336263e-12
       121   174.09877          47849   364            360            4954           739            41432          1.9594508e-12
       122   177.90649          48279   364            360            5044           771            41740          1.9865757e-12
       123   181.76819          48675   364            361            5113           804            42033          2.0142821e-12
       124   185.69494          49089   364            361            5221           828            42315          2.0438566e-12
       125   189.66606          49469   364            361            5295           853            42596          2.0736135e-12
       126   193.72518          49879   364            361            5395           880            42879          2.1037017e-12
       127   197.84356          50302   364            361            5477           921            43179          2.1336006e-12
       128   202.0184           50698   364            361            5580           951            43442          2.1637111e-12
       129   206.26672          51104   364            360            5662           988            43730          2.1945214e-12
       130   210.70797          51534   364            359            5768           1031           44012          2.2258728e-12
       131   215.12216          51951   364            358            5862           1071           44296          2.2574195e-12
       132   219.59004          52361   364            356            5951           1099           44591          2.2898941e-12
       133   224.1265           52753   364            356            6057           1144           44832          2.3230559e-12
       134   228.70641          53185   364            357            6145           1186           45133          2.3578435e-12
       135   233.36457          53616   364            357            6249           1235           45411          2.3931707e-12
       136   238.10182          54042   364            356            6356           1289           45677          2.4305535e-12
       137   242.91508          54479   364            356            6470           1333           45956          2.4689916e-12
       138   247.81374          54921   364            356            6593           1387           46221          2.5082524e-12
       139   252.7961           55363   364            355            6703           1444           46497          2.5484845e-12
       140   257.9935           55797   364            355            6817           1502           46759          2.5898821e-12
       141   263.10835          56251   364            354            6952           1556           47025          2.6319951e-12
       142   268.30296          56716   364            355            7092           1608           47297          2.674622e-12 
       143   273.56237          57156   364            355            7233           1657           47547          2.7174419e-12
       144   278.92402          57628   364            355            7367           1708           47834          2.7607355e-12
       145   284.3655           58074   364            354            7515           1762           48079          2.805491e-12 
       146   289.90365          58560   364            354            7672           1819           48351          2.8514058e-12
       147   295.53149          59024   364            354            7813           1877           48616          2.898975e-12 
       148   301.24267          59477   364            355            7952           1941           48865          2.9482072e-12
       149   307.0347           59971   364            355            8125           1994           49133          2.9992193e-12
       150   313.07415          60458   364            355            8306           2051           49382          3.0511844e-12
       151   319.0677           60946   363            354            8469           2108           49652          3.1040106e-12
       152   325.13614          61414   363            354            8606           2171           49920          3.157296e-12 
       153   331.3081           61904   363            354            8778           2235           50174          3.2113385e-12
       154   337.59681          62413   363            354            8969           2285           50442          3.2659789e-12
       155   343.98216          62884   363            353            9130           2356           50682          3.3223976e-12
       156   350.48145          63410   363            352            9331           2416           50948          3.3809959e-12
       157   357.06458          63933   363            352            9540           2469           51209          3.4429732e-12
       158   363.75166          64435   363            352            9733           2527           51460          3.5091684e-12
       159   370.56282          65009   363            351            9993           2581           51721          3.5801652e-12
       160   377.68203          65539   363            351            10223          2629           51973          3.6534988e-12
       161   384.68472          66073   362            351            10428          2712           52220          3.7295859e-12
       162   391.84905          66632   362            351            10660          2773           52486          3.809724e-12 
       163   399.07941          67219   361            351            10934          2842           52731          3.8938625e-12
       164   406.43893          67796   361            351            11215          2905           52964          3.9835527e-12
       165   413.92711          68416   361            351            11512          2970           53222          4.0799507e-12
       166   421.59389          69055   361            351            11841          3033           53469          4.1850516e-12
       167   429.3957           69703   361            352            12199          3083           53708          4.3004051e-12
       168   437.29466          70385   361            352            12575          3144           53953          4.4241776e-12
       169   445.39474          71106   361            352            12986          3208           54199          4.5604888e-12
       170   453.82449          71829   361            352            13427          3267           54422          4.6963695e-12
       171   462.23308          72595   361            351            13862          3338           54683          4.8393046e-12
       172   470.81233          73293   361            351            14258          3417           54906          4.9802283e-12
       173   479.53855          74038   361            351            14718          3470           55138          5.1222974e-12
       174   488.41081          74827   361            351            15201          3522           55392          5.2665433e-12
       175   497.51638          75627   361            351            15728          3561           55626          5.4131862e-12
       176   506.73974          76372   361            350            16174          3629           55858          5.5653468e-12
       177   516.09467          77115   361            348            16630          3684           56092          5.7089412e-12
       178   525.61316          77885   361            347            17106          3744           56327          5.8557788e-12
       179   535.31113          78737   361            347            17677          3804           56548          6.0181527e-12
       180   545.36156          79548   361            347            18204          3866           56770          6.1755808e-12
       181   555.44797          80372   361            348            18713          3932           57018          6.3209159e-12
       182   565.68047          81164   360            348            19231          3991           57234          6.4788493e-12
       183   576.01813          81951   360            348            19740          4067           57436          6.638229e-12 
       184   586.50842          82829   360            348            20296          4139           57686          6.8037249e-12
       185   597.1713           83705   360            348            20878          4230           57889          6.978919e-12 
       186   607.93058          84601   360            347            21466          4316           58112          7.144678e-12 
       187   618.78714          85410   359            347            21968          4420           58316          7.3123857e-12
       188   629.72395          86281   358            346            22523          4542           58512          7.4897202e-12
       189   640.80679          87164   358            346            23042          4695           58723          7.6690954e-12
       190   652.2137           88091   358            345            23615          4859           58914          7.8493368e-12
       191   663.48876          89017   358            344            24152          5047           59116          8.0410003e-12
       192   674.85033          89957   358            344            24745          5209           59301          8.2416053e-12
       193   686.27601          90887   358            341            25297          5412           59479          8.4513822e-12
       194   697.73392          91803   358            341            25860          5592           59652          8.6339064e-12
       195   709.28773          92745   357            340            26424          5802           59822          8.8387159e-12
       196   720.95176          93743   356            338            27081          5992           59976          9.0425233e-12
       197   732.6552           94673   356            337            27633          6217           60130          9.2445996e-12
       198   744.45693          95616   356            335            28173          6462           60290          9.4359014e-12
       199   756.36303          96587   356            331            28775          6709           60416          9.6337548e-12
       200   768.54783          97528   356            331            29340          6952           60549          9.8289074e-12
       201   780.58251          98436   355            331            29868          7215           60667          1.003206e-11 
       202   792.72557          99398   355            331            30470          7433           60809          1.0221803e-11
       203   804.92501         100308   354            326            31040          7687           60901          1.0408971e-11
       204   817.24297         101237   353            324            31599          7944           61017          1.0583739e-11
       205   829.66622         102128   351            318            32157          8182           61120          1.074832e-11 
       206   842.16386         102956   349            315            32649          8438           61205          1.0914568e-11
       207   854.75989         103749   347            313            33110          8693           61286          1.1046374e-11
       208   867.41564         104558   345            313            33588          8948           61364          1.1188127e-11
       209   880.16333         105394   344            310            34065          9214           61461          1.1327166e-11
       210   893.25417         106209   343            306            34559          9453           61548          1.1433798e-11
       211   906.1862          106935   341            305            34988          9690           61611          1.1561826e-11
       212   919.18944         107575   337            302            35313          9937           61686          1.1632436e-11
       213   932.2664          108322   335            300            35782          10160          61745          1.1740227e-11
       214   945.39124         108980   329            290            36165          10405          61791          1.1815095e-11
       215   958.56756         109605   321            287            36484          10671          61842          1.187784e-11 
       216   971.81984         110217   318            284            36825          10907          61883          1.1942423e-11
       217   985.11078         110830   309            277            37128          11179          61937          1.1995807e-11
       218   998.47143         111452   301            273            37462          11435          61981          1.2052263e-11
       219   1011.8824         111995   293            266            37686          11722          62028          1.207927e-11 
       220   1025.6356         112608   285            262            37944          12035          62082          1.2105674e-11
       221   1039.1551         113148   282            256            38148          12341          62121          1.2148827e-11
       222   1052.7836         113731   277            254            38405          12635          62160          1.2172933e-11
       223   1066.4382         114266   263            244            38625          12927          62207          1.2222139e-11
       224   1080.0961         114710   253            240            38745          13236          62236          1.2225119e-11
       225   1093.8774         115208   242            227            38896          13565          62278          1.2226913e-11
       226   1107.7045         115780   231            219            39099          13918          62313          1.2234133e-11
       227   1121.6149         116238   221            197            39204          14276          62340          1.2221605e-11
       228   1135.5451         116641   211            189            39281          14579          62381          1.2203759e-11
       229   1149.5902         117101   203            184            39414          14891          62409          1.2219098e-11
       230   1163.977          117564   193            178            39509          15247          62437          1.2255781e-11
       231   1178.1055         118060   180            173            39662          15567          62478          1.2245485e-11
       232   1192.339          118547   175            165            39784          15917          62506          1.2222072e-11
       233   1206.6389         118959   165            153            39844          16254          62543          1.2228106e-11
       234   1221.0362         119325   153            140            39859          16595          62578          1.2209638e-11
       235   1235.4058         119711   144            133            39892          16929          62613          1.2184296e-11
       236   1249.8093         120240   134            131            40047          17276          62652          1.2212136e-11
       237   1264.305          120673   129            121            40143          17600          62680          1.2208589e-11
       238   1278.8166         121106   117            111            40232          17940          62706          1.219649e-11 
       239   1293.4197         121458   108            102            40228          18288          62732          1.216132e-11 
       240   1308.3591         121851   99             94             40264          18635          62759          1.2172114e-11
       241   1323.0694         122254   89             88             40272          19013          62792          1.2180241e-11
       242   1337.856          122663   85             80             40315          19354          62829          1.2176645e-11
       243   1352.7042         123136   79             72             40434          19695          62856          1.2169729e-11
       244   1367.6466         123563   75             69             40513          20016          62890          1.2153266e-11
       245   1382.6557         124019   75             62             40616          20347          62919          1.2172475e-11
       246   1397.709          124325   72             58             40589          20660          62946          1.2176104e-11
       247   1412.8108         124676   66             55             40590          20985          62980          1.2167608e-11
       248   1427.9957         125093   62             53             40646          21323          63009          1.2144566e-11
       249   1443.2382         125534   57             53             40751          21637          63036          1.2141478e-11
       250   1458.8422         125893   55             50             40750          21968          63070          1.2114886e-11
       251   1474.2127         126224   54             49             40729          22298          63094          1.2119396e-11
       252   1489.656          126627   52             45             40755          22655          63120          1.2115665e-11
       253   1505.1418         126944   47             41             40695          23010          63151          1.21251e-11  
       254   1520.6594         127346   45             39             40722          23362          63178          1.2120696e-11
       255   1536.2504         127777   44             35             40773          23722          63203          1.2095432e-11
       256   1551.9072         128222   40             32             40817          24104          63229          1.211729e-11 
       257   1567.6199         128555   38             32             40741          24486          63258          1.2089359e-11
       258   1583.4144         128824   37             30             40577          24903          63277          1.2088056e-11
       259   1599.238          129216   37             30             40532          25311          63306          1.2099671e-11
       260   1615.4327         129631   35             30             40502          25732          63332          1.2112261e-11
       261   1631.4124         130030   33             29             40476          26138          63354          1.2108271e-11
       262   1647.4448         130415   31             29             40411          26566          63378          1.2093922e-11
       263   1663.5528         130792   28             28             40315          27017          63404          1.2105664e-11
       264   1679.7053         131133   26             28             40156          27492          63431          1.2118422e-11
       265   1695.9954         131486   25             28             40023          27961          63449          1.2127586e-11
       266   1712.2529         131773   25             27             39825          28417          63479          1.2107807e-11
       267   1728.5758         132226   24             26             39792          28891          63493          1.2117639e-11
       268   1744.971          132622   20             26             39728          29330          63518          1.2130057e-11
       269   1761.4601         132940   19             26             39557          29800          63538          1.2144707e-11
       270   1778.2839         133241   18             25             39346          30291          63561          1.2133779e-11
       271   1794.9368         133601   18             25             39218          30760          63580          1.2145736e-11
       272   1811.7751         134026   18             25             39128          31249          63606          1.2165349e-11
       273   1828.5622         134397   18             24             39016          31716          63623          1.2178385e-11
       274   1845.3886         134712   18             23             38829          32195          63647          1.2175777e-11
       275   1862.3015         135027   17             23             38644          32680          63663          1.2167821e-11
       276   1879.2263         135397   17             23             38520          33150          63687          1.2168521e-11
       277   1896.0683         135662   17             23             38237          33678          63707          1.2181747e-11
       278   1912.9437         136117   17             23             38246          34103          63728          1.2223261e-11
       279   1929.9004         136489   17             23             38147          34553          63749          1.222298e-11 
       280   1947.3075         136766   17             23             37929          35030          63767          1.2217365e-11
       281   1964.4967         137147   17             23             37811          35505          63791          1.2225154e-11
       282   1981.8092         137404   17             23             37622          35934          63808          1.222794e-11 
       283   1998.9984         137759   17             23             37518          36368          63833          1.2233986e-11
       284   2016.3918         138099   17             22             37450          36762          63848          1.2236611e-11
       285   2033.8171         138415   17             22             37322          37181          63873          1.2243067e-11
       286   2051.216          138744   17             22             37202          37612          63891          1.2239738e-11
       287   2068.8396         139084   16             22             37129          38001          63916          1.2261935e-11
       288   2086.2885         139485   16             22             37132          38379          63936          1.2285324e-11
       289   2103.8214         139790   16             22             36993          38805          63954          1.2304535e-11
       290   2121.9321         140088   16             21             36852          39223          63976          1.2282189e-11
       291   2139.7471         140354   16             21             36717          39606          63994          1.227522e-11 
       292   2157.4728         140660   16             21             36597          40011          64015          1.2282597e-11
       293   2175.2207         141049   16             21             36624          40354          64034          1.2303253e-11
       294   2193.0344         141399   16             21             36603          40703          64056          1.2326955e-11
       295   2210.8869         141789   16             21             36604          41074          64074          1.2356841e-11
       296   2228.8509         142139   16             21             36569          41435          64098          1.2363335e-11
       297   2246.9139         142447   16             21             36510          41782          64118          1.2371792e-11
       298   2265.0213         142742   16             21             36465          42103          64137          1.2368556e-11
       299   2283.2356         143020   16             21             36372          42452          64159          1.2362713e-11
       300   2301.7717         143348   16             21             36335          42796          64180          1.2384126e-11
       301   2320.0691         143700   16             21             36320          43142          64201          1.2401398e-11
       302   2338.4495         144034   16             21             36313          43463          64221          1.2412299e-11
       303   2356.8717         144348   16             21             36338          43729          64244          1.2410386e-11
       304   2375.4118         144653   16             21             36281          44074          64261          1.2426552e-11
       305   2394.0008         145002   16             21             36252          44427          64286          1.2434871e-11
       306   2412.6638         145388   16             21             36301          44746          64304          1.2459335e-11
       307   2431.4096         145662   16             21             36249          45049          64327          1.2484086e-11
       308   2450.1899         145939   16             21             36193          45364          64345          1.2478992e-11
       309   2469.0715         146323   16             21             36234          45684          64368          1.2491451e-11
       310   2488.3721         146606   16             21             36173          46009          64387          1.2498854e-11
       311   2507.3962         146887   16             21             36070          46372          64408          1.2496938e-11
       312   2526.5621         147305   16             21             36123          46719          64426          1.2501675e-11
       313   2545.7677         147513   16             21             36002          47027          64447          1.2505608e-11
       314   2564.946          147892   16             21             36044          47341          64470          1.2539903e-11
       315   2584.1492         148165   16             21             35996          47644          64488          1.2538688e-11
       316   2603.4364         148488   16             21             35961          47981          64509          1.2544864e-11
       317   2622.7562         148842   16             21             35968          48305          64532          1.2567052e-11
       318   2642.126          149183   16             21             35986          48610          64550          1.2581985e-11
       319   2661.593          149511   16             21             35966          48937          64571          1.2591335e-11
       320   2681.5693         149778   16             21             35878          49270          64593          1.2602626e-11
Loop time of 2681.57 on 16 procs for 320 steps with 149778 atoms

97.9% CPU use with 16 MPI tasks x 1 OpenMP threads

MPI task timing breakdown:
Section |  min time  |  avg time  |  max time  |%varavg| %total
---------------------------------------------------------------
Pair    | 701.35     | 823.32     | 969.99     | 290.7 | 30.70
Neigh   | 436.99     | 560.56     | 783.26     | 477.2 | 20.90
Comm    | 317.96     | 390.87     | 470.54     | 266.9 | 14.58
Output  | 8.7671     | 8.7673     | 8.7684     |   0.0 |  0.33
Modify  | 451.85     | 884.27     | 1148.1     | 769.3 | 32.98
Other   |            | 13.78      |            |       |  0.51

Nlocal:        9361.12 ave       12911 max        7745 min
Histogram: 5 6 1 0 0 0 0 0 3 1
Nghost:        7266.25 ave        9530 max        6058 min
Histogram: 4 5 2 1 0 0 0 0 0 4
Neighs:        90959.6 ave      101645 max       81562 min
Histogram: 2 0 2 4 2 2 0 1 1 2

Total # of neighbors = 1455353
Ave neighs/atom = 9.7167341
Neighbor list builds = 27989
Dangerous builds = 27669

Total wall time: 0:44:42
