LAMMPS (23 Jun 2022 - Update 4)
  using 1 OpenMP thread(s) per MPI task
package omp 0
using multi-threaded neighbor list subroutines
#-----------------------------------------------------------------------------#
#                NUFEB Simulation: Heterotrophic Biofilm Growth               #
#-----------------------------------------------------------------------------#


#-----------------------------System Settings---------------------------------#

units si                                    # using si units (m, s, kg)
atom_style      coccus                      # using nufeb coccus atom style
atom_modify     map array sort 10 0         # map array - find atoms using indices
		                            # sort every 10

boundary        pp pp ff                    # periodic boundaries in x and y
                                            # fixed boundary in z

newton          off                         # forces between local and ghost
                                            # atoms are computed in each
					     # processor without communication

processors      * * 1                       # processor grid

comm_modify     vel yes                     # communicate velocities for ghost atoms

read_data       atom_ch.in	             # read atom.in file which defines domain size
Reading data file ...
  orthogonal box = (0 0 0) to (6e-05 6e-05 6e-05)
  4 by 4 by 1 MPI processor grid
  reading atoms ...
  150 atoms
  read_data CPU = 0.013 seconds
                                            # and initial atoms


#--------------------Microbes and Functional Groups-------------------------#

group           CROSS1   type 1               # assign type 1,2 atoms to CROSS group
50 atoms in group CROSS1
group           CROSS2   type 2
50 atoms in group CROSS2
group		CHEATER  type 3
50 atoms in group CHEATER
group           dead     type 4
0 atoms in group dead
group		EPS	 type 5
0 atoms in group EPS

neighbor        5e-7 bin                   # setting neighbour skin distance and style

neigh_modify    check yes                  # rebuild neighbour list if any atom
                                           # had moved more than half the skin distance


#--------------------------Mesh Grid and Substrates--------------------------#

# defining grid sytle, substrate names, and grid size
grid_style      nufeb/chemostat 3 sub metab1 metab2 5e-6

# set diffusion boundary conditions and initial concentrations (liquid:kg/m3)
grid_modify     set sub      pp pp nd  1.8e-4
No /omp style for force computation currently active
grid_modify     set metab1   pp pp nd  1e-4
No /omp style for force computation currently active
grid_modify     set metab2   pp pp nd  1e-4
No /omp style for force computation currently active


#--------------------------Biological Processes-------------------------------#

# heterotrophs growth
fix growth_cross1 CROSS1 nufeb/growth/cross1 sub 3.5e-5 metab2 4e-3 metab1 growth 0.009 yield 0.6 decay 2.6e-6 metab1_exp 20 epsyield 0.12 epsdens 30

fix growth_cross2 CROSS2 nufeb/growth/cross2 sub 3.5e-5 metab1 4e-3 metab2 growth 0.009 yield 0.6 decay 2.6e-6 metab2_exp 20 epsyield 0.12 epsdens 30

fix growth_cheater CHEATER nufeb/growth/cheater sub 3.5e-5 metab1 1e-3 metab2 1e-3 growth 0.009 yield 0.6 decay 2.6e-6

# heterotrophs division, division diameter: 1.36e-6
fix div1 CROSS1 nufeb/division/coccus 1.36e-6 1472
fix div2 CROSS2 nufeb/division/coccus 1.36e-6 5582
fix div3 CHEATER nufeb/division/coccus 1.36e-6 12430

fix death1 CROSS1 nufeb/death/diameter dead 5.43e-7
fix death2 CROSS2 nufeb/death/diameter dead 5.43e-7
fix death3 CHEATER nufeb/death/diameter dead 5.43e-7

# EPS secretion from heterotrophs
fix eps1 CROSS1 nufeb/eps_secretion 5 EPS 1.1 30 22016
fix eps2 CROSS2 nufeb/eps_secretion 5 EPS 1.1 30 34340

#---------------------------Physical Processes--------------------------------#

pair_style  gran/hooke/history 1e-4 NULL 1e-5 NULL 0.0 0    # pairwise interaction
pair_coeff  * *                                             # between atoms

# pairwise interaction between z-wall and atoms
fix wall all wall/gran hooke/history 1e-3 NULL 1e-4 NULL 0 0 zplane 0.0 1e-04

fix vis all viscous 1e-5                                    # viscous damping force

fix grav all gravity 9.81 vector 0.0 0.0 -1.0

fix nve all nve/limit 1e-7                                  # NVE integration with
                                                            # maximum distance limit


#---------------------------Post-Physical Processes---------------------------#

fix coeff_sub all nufeb/diffusion_coeff sub ratio 0.8       # defining diffusion coeff in the biofilm
fix coeff_metab1 all nufeb/diffusion_coeff metab1 ratio 0.8    # region is 80% of the value in liquid
fix coeff_metab2 all nufeb/diffusion_coeff metab2 ratio 0.8

#---------------------------Chemical Processes---------------------------------#

fix diff_sub all nufeb/diffusion_reaction sub 1e-9        # diffusion reaction for updating
fix diff_metab1 all nufeb/diffusion_reaction metab1 4e-9     # distribusion of substrate concentration
fix diff_metab2 all nufeb/diffusion_reaction metab2 4e-9

#--------------------------Computations and Outputs----------------------------#

variable mass equal "mass(all)"                             # total mass
variable ncross1 equal "count(CROSS1)"                      # total # of CROSS1
variable ncross2 equal "count(CROSS2)"                      # total # of CROSS2
variable ncheater equal "count(CHEATER)"
variable ndead equal "count(dead)"
variable neps equal "count(EPS)"

shell mkdir vtk_EPS_ch                                            # dump vtk files to /vtk folder
dump du1 all vtk 10 vtk_EPS_ch/dump*.vtu id type diameter         # require build NUFEB with vtk option
dump du2 all grid/vtk 10 vtk_EPS_ch/dump_%_*.vti con rea den gro

#dump du3 all movie 10 movie.avi type diameter view 80 60    # dump video
#dump_modify du3 acolor 1 blue acolor 2 lightgrey framerate 10


                                                            # dump hdf5 files to /hdf5 folder
#shell mkdir hdf5                                           # require build NUFEB with hdf5 option
#dump du3 all nufeb/hdf5 10 dump.h5 id type x y z vx vy vz fx fy fz radius conc reac

thermo_style custom step cpu atoms v_ncross1 v_ncross2 v_ncheater v_ndead v_neps v_mass     # screen and log outputs
thermo 1
thermo_modify   lost ignore

#-----------------------------------Run----------------------------------------#

# issue run command, define timesteps for physical (pairdt) and chemical (diffdt) processes
run_style nufeb diffdt 1e-4 difftol 1e-6 pairdt 1e-2 pairtol 1 pairmax 1000 diffmax 5000

timestep 12000                                               # define biological timesteps (1000s)

run 320                                                    # growing biofilm for 900x1000s
Generated 0 of 6 mixed pair_coeff terms from geometric mixing rule
Last active /omp style is pair_style gran/hooke/history/omp
Neighbor list info ...
  update every 1 steps, delay 10 steps, check yes
  max neighbors/atom: 2000, page size: 100000
  master list distance cutoff = 2.49e-06
  ghost atom cutoff = 2.49e-06
  binsize = 1.245e-06, bins = 49 49 49
  1 neighbor lists, perpetual/occasional/extra = 1 0 0
  (1) pair gran/hooke/history/omp, perpetual
      attributes: half, newton off, size, history, omp
      pair build: half/size/bin/newtoff/omp
      stencil: full/bin/3d
      bin: standard
Per MPI rank memory allocation (min/avg/max) = 11.02 | 11.02 | 11.02 Mbytes
   Step          CPU          Atoms      v_ncross1      v_ncross2      v_ncheater      v_ndead         v_neps         v_mass    
         0   0                    150   50             50             50             0              0              1.3295396e-13
         1   0.38304214           432   90             85             86             0              171            1.7272059e-13
         2   0.76069055           793   117            127            136            0              413            1.9512864e-13
         3   1.0571398           1126   130            144            175            0              677            2.1384489e-13
         4   1.3650501           1437   140            153            193            0              951            2.3072205e-13
         5   1.5636229           1758   143            161            210            0              1244           2.4723159e-13
         6   1.7402476           2083   147            167            227            0              1542           2.6348216e-13
         7   1.901554            2420   157            174            242            0              1847           2.7946544e-13
         8   2.0378038           2771   167            178            260            0              2166           2.9536859e-13
         9   2.1710897           3117   173            182            274            0              2488           3.107811e-13 
        10   2.3479193           3498   181            194            294            0              2829           3.2586849e-13
        11   2.5026915           3883   186            203            315            0              3179           3.4091323e-13
        12   2.6367332           4263   190            212            331            0              3530           3.5581754e-13
        13   2.7666195           4651   195            221            345            0              3890           3.7036576e-13
        14   2.8729071           5050   202            226            366            0              4256           3.8421687e-13
        15   2.9568158           5446   209            233            377            0              4627           3.978687e-13 
        16   3.050456            5851   216            238            390            0              5007           4.1102951e-13
        17   3.1676626           6237   219            241            405            0              5372           4.2396755e-13
        18   3.2779643           6635   224            246            425            0              5740           4.3638238e-13
        19   3.3809365           7046   226            253            446            0              6121           4.4884613e-13
        20   3.514603            7422   229            256            461            0              6476           4.60812e-13  
        21   3.6012002           7819   234            260            474            0              6851           4.7199814e-13
        22   3.6928554           8228   240            264            494            0              7230           4.8291443e-13
        23   3.781381            8634   246            270            502            0              7616           4.9342619e-13
        24   3.8722558           9035   253            270            511            0              8001           5.0354828e-13
        25   3.9783944           9434   257            273            528            0              8376           5.1318321e-13
        26   4.0950634           9840   261            276            537            0              8766           5.2252259e-13
        27   4.2319926          10254   268            279            546            0              9161           5.3143257e-13
        28   4.3239145          10670   272            283            560            0              9555           5.399425e-13 
        29   4.4534707          11075   276            285            576            0              9938           5.4826262e-13
        30   4.5880994          11471   280            286            585            0              10320          5.5616343e-13
        31   4.6853512          11890   289            289            591            0              10721          5.6369248e-13
        32   4.834546           12302   291            293            596            0              11122          5.7125829e-13
        33   4.9470704          12694   293            295            601            0              11505          5.782899e-13 
        34   5.0742122          13102   297            296            611            0              11898          5.8524305e-13
        35   5.2209038          13501   299            298            617            0              12287          5.9192778e-13
        36   5.3988853          13904   303            302            625            0              12674          5.9858853e-13
        37   5.6829895          14326   307            303            634            0              13082          6.0501967e-13
        38   5.9653752          14740   310            304            650            0              13476          6.110062e-13 
        39   6.281675           15134   312            305            652            0              13865          6.1659761e-13
        40   6.8557552          15561   314            307            662            0              14278          6.2234333e-13
        41   7.4034467          15951   315            307            668            0              14661          6.2775653e-13
        42   7.9196024          16369   317            307            675            0              15070          6.3299847e-13
        43   8.5701881          16763   320            309            679            0              15455          6.3792978e-13
        44   9.3942388          17175   325            310            689            0              15851          6.4285824e-13
        45   10.201484          17577   326            311            692            0              16248          6.477907e-13 
        46   11.106096          17978   328            312            697            0              16641          6.5255308e-13
        47   12.141936          18378   331            315            705            0              17027          6.5726486e-13
        48   13.072595          18801   334            318            714            0              17435          6.6192303e-13
        49   13.997329          19201   334            320            722            0              17825          6.6627858e-13
        50   15.078806          19609   335            320            730            0              18224          6.7059155e-13
        51   16.06368           20011   337            326            731            0              18617          6.7452116e-13
        52   17.099997          20420   338            331            735            0              19016          6.7835172e-13
        53   18.137349          20854   341            333            741            0              19439          6.8204628e-13
        54   19.201922          21266   343            335            747            0              19841          6.8575542e-13
        55   20.28038           21678   347            336            753            0              20242          6.891953e-13 
        56   21.378767          22090   348            338            760            0              20644          6.9262822e-13
        57   22.508873          22522   349            339            766            0              21068          6.9610005e-13
        58   23.658902          22926   353            341            769            1              21462          6.9935335e-13
        59   24.816916          23360   354            343            778            1              21884          7.0276935e-13
        60   26.088328          23774   356            343            784            1              22290          7.0597751e-13
        61   27.392879          24207   358            343            790            1              22715          7.0961503e-13
        62   28.666931          24632   359            346            792            4              23131          7.1322308e-13
        63   29.970302          25054   361            348            800            4              23541          7.1703372e-13
        64   31.294863          25488   363            350            807            4              23964          7.2103475e-13
        65   32.639537          25900   365            353            817            4              24361          7.2499464e-13
        66   34.040061          26347   367            354            823            5              24798          7.2946368e-13
        67   35.442667          26756   367            356            831            7              25195          7.3424374e-13
        68   36.931342          27191   367            358            839            10             25617          7.3919283e-13
        69   38.447485          27619   370            359            848            13             26029          7.446651e-13 
        70   40.101912          28056   371            363            855            14             26453          7.5064594e-13
        71   41.677054          28486   371            363            875            16             26861          7.5721794e-13
        72   43.267612          28912   372            364            885            22             27269          7.6403684e-13
        73   44.900114          29342   373            364            895            26             27684          7.7107203e-13
        74   46.587031          29775   374            366            917            28             28090          7.783278e-13 
        75   48.326275          30206   376            366            944            31             28489          7.8593333e-13
        76   50.030725          30646   378            367            956            35             28910          7.9405263e-13
        77   51.821085          31067   380            370            974            38             29305          8.0223818e-13
        78   53.593939          31503   382            374            987            42             29718          8.109078e-13 
        79   55.414343          31942   383            374            1009           47             30129          8.1953529e-13
        80   57.321666          32363   383            374            1027           55             30524          8.2822709e-13
        81   59.189708          32800   385            374            1045           64             30932          8.3696806e-13
        82   61.121686          33230   385            375            1061           73             31336          8.4569326e-13
        83   63.09457           33659   385            379            1088           80             31727          8.547492e-13 
        84   65.130569          34088   385            380            1106           88             32129          8.6418703e-13
        85   67.145799          34512   386            381            1130           94             32521          8.7419859e-13
        86   69.24818           34950   386            381            1153           101            32929          8.8442917e-13
        87   71.329063          35375   387            382            1185           105            33316          8.9498262e-13
        88   73.533522          35803   387            383            1203           112            33718          9.0584535e-13
        89   75.720582          36215   387            384            1231           115            34098          9.1734508e-13
        90   78.021469          36674   387            384            1273           122            34508          9.2936822e-13
        91   80.29228           37075   387            385            1291           133            34879          9.4151144e-13
        92   82.568758          37507   388            385            1317           135            35282          9.544359e-13 
        93   84.913912          37905   391            386            1347           144            35637          9.6728864e-13
        94   87.304421          38362   391            386            1384           149            36052          9.8108073e-13
        95   89.669246          38759   391            387            1424           157            36400          9.9529588e-13
        96   92.125431          39220   391            388            1472           164            36805          1.0101818e-12
        97   94.596057          39625   392            389            1514           174            37156          1.0252922e-12
        98   97.114212          40047   392            389            1551           182            37533          1.0411293e-12
        99   99.674213          40458   392            389            1601           187            37889          1.0572532e-12
       100   102.34699          40878   392            389            1651           191            38255          1.0737693e-12
       101   104.96302          41292   392            389            1686           197            38628          1.0906385e-12
       102   107.6544           41690   392            389            1727           212            38970          1.1077639e-12
       103   110.35532          42123   392            389            1793           215            39334          1.1253118e-12
       104   113.08623          42536   392            390            1848           222            39684          1.1427391e-12
       105   115.85831          42937   392            390            1909           231            40015          1.1606504e-12
       106   118.62977          43348   392            391            1965           235            40365          1.1788715e-12
       107   121.53402          43736   393            391            2011           243            40698          1.1969111e-12
       108   124.41466          44159   393            391            2086           245            41044          1.2154436e-12
       109   127.35734          44553   393            392            2136           256            41376          1.2339149e-12
       110   130.4368           44943   393            392            2204           260            41694          1.2525439e-12
       111   133.48502          45341   393            395            2259           271            42023          1.2711983e-12
       112   136.55304          45716   394            395            2315           279            42333          1.2901359e-12
       113   139.59047          46104   395            395            2367           295            42652          1.3088554e-12
       114   142.75443          46496   395            397            2422           311            42971          1.3276534e-12
       115   145.89912          46880   395            398            2481           324            43282          1.3470521e-12
       116   149.02191          47240   396            399            2532           336            43577          1.3661193e-12
       117   152.19141          47639   397            402            2584           355            43901          1.3846068e-12
       118   155.41132          48009   397            405            2644           369            44194          1.4029462e-12
       119   158.69478          48395   397            407            2688           398            44505          1.4214387e-12
       120   162.14158          48783   397            409            2741           424            44812          1.4395147e-12
       121   165.5101           49162   397            411            2785           449            45120          1.4573621e-12
       122   168.88017          49543   400            411            2828           468            45436          1.4751055e-12
       123   172.35309          49950   400            412            2883           493            45762          1.4928733e-12
       124   175.82955          50287   401            414            2932           505            46035          1.5102856e-12
       125   179.35509          50696   403            415            3001           519            46358          1.5279825e-12
       126   182.91407          51070   403            415            3054           540            46658          1.5455461e-12
       127   186.50136          51455   407            418            3103           564            46963          1.5630704e-12
       128   190.1256           51829   407            419            3157           580            47266          1.5803604e-12
       129   193.77528          52191   407            420            3225           597            47542          1.5972309e-12
       130   197.69157          52574   409            424            3278           620            47843          1.6144694e-12
       131   201.41306          52941   410            427            3328           641            48135          1.6317734e-12
       132   205.18626          53329   411            430            3388           659            48441          1.6489213e-12
       133   208.9792           53717   413            431            3456           673            48744          1.6657928e-12
       134   212.84171          54092   414            432            3529           694            49023          1.6823268e-12
       135   216.7556           54477   415            432            3560           718            49352          1.6988138e-12
       136   220.71939          54886   415            435            3633           730            49673          1.7149548e-12
       137   224.74151          55263   415            435            3705           746            49962          1.7306768e-12
       138   228.78882          55678   416            437            3788           761            50276          1.7466276e-12
       139   232.90385          56058   418            438            3849           775            50578          1.7625735e-12
       140   237.22282          56441   418            439            3924           788            50872          1.7788535e-12
       141   241.49399          56857   419            443            3991           812            51192          1.7952185e-12
       142   245.78269          57237   419            444            4056           828            51490          1.8124098e-12
       143   250.11375          57645   421            444            4128           839            51813          1.830031e-12 
       144   254.52038          58046   422            444            4202           858            52120          1.8480285e-12
       145   258.96491          58464   424            445            4283           874            52438          1.8664181e-12
       146   263.43228          58889   424            446            4366           900            52753          1.8849282e-12
       147   267.94594          59302   424            446            4443           923            53066          1.9036606e-12
       148   272.48686          59706   424            446            4513           947            53376          1.9220568e-12
       149   277.07967          60139   425            446            4584           975            53709          1.9401771e-12
       150   281.86823          60554   425            446            4653           1011           54019          1.9579703e-12
       151   286.56901          60983   425            446            4725           1040           54347          1.9756233e-12
       152   291.33656          61403   425            446            4795           1072           54665          1.9928287e-12
       153   296.17793          61832   425            445            4873           1095           54994          2.0099453e-12
       154   301.10194          62243   425            444            4932           1132           55310          2.0271285e-12
       155   306.06253          62689   426            445            4998           1170           55650          2.0445869e-12
       156   311.09741          63095   426            445            5059           1205           55960          2.0622851e-12
       157   316.22072          63553   426            446            5131           1249           56301          2.0806544e-12
       158   321.37577          63963   426            446            5197           1286           56608          2.0994118e-12
       159   326.6157           64430   426            445            5258           1331           56970          2.118646e-12 
       160   332.09708          64864   426            445            5335           1361           57297          2.1385358e-12
       161   337.47652          65315   426            446            5409           1389           57645          2.1594091e-12
       162   342.97865          65765   426            445            5501           1423           57970          2.1808996e-12
       163   348.48932          66215   426            444            5570           1465           58310          2.2032847e-12
       164   354.06745          66660   426            443            5651           1506           58634          2.2257349e-12
       165   359.73728          67137   425            443            5722           1547           59000          2.24879e-12  
       166   365.4418           67578   425            442            5811           1581           59319          2.2717907e-12
       167   371.23215          68042   425            441            5908           1616           59652          2.2952583e-12
       168   377.08552          68476   425            441            5979           1657           59974          2.3191168e-12
       169   383.01038          68957   425            439            6076           1701           60316          2.342475e-12 
       170   389.17414          69435   425            438            6158           1749           60665          2.3665635e-12
       171   395.26945          69893   426            437            6257           1788           60985          2.3909683e-12
       172   401.4352           70347   426            437            6342           1830           61312          2.4163366e-12
       173   407.62107          70816   426            437            6431           1876           61646          2.4420421e-12
       174   413.9217           71309   425            435            6527           1931           61991          2.4681898e-12
       175   420.25526          71780   424            433            6625           1976           62322          2.49501e-12  
       176   426.66283          72238   423            433            6712           2036           62634          2.5225147e-12
       177   433.16584          72725   423            433            6790           2101           62978          2.5504739e-12
       178   439.72066          73210   423            433            6877           2167           63310          2.5791538e-12
       179   446.34912          73675   423            431            6978           2222           63621          2.607852e-12 
       180   453.21162          74150   422            428            7064           2285           63951          2.6368191e-12
       181   459.97626          74616   421            428            7144           2356           64267          2.665935e-12 
       182   466.82181          75081   420            427            7213           2425           64596          2.6954766e-12
       183   473.74355          75575   420            426            7319           2488           64922          2.7257722e-12
       184   480.71195          76043   419            426            7420           2549           65229          2.7569149e-12
       185   487.73117          76519   419            426            7524           2597           65553          2.7886585e-12
       186   494.88717          76975   419            425            7607           2672           65852          2.8210236e-12
       187   502.11165          77470   419            425            7724           2724           66178          2.8543677e-12
       188   509.36835          77969   419            425            7868           2762           66495          2.8889601e-12
       189   516.71899          78432   418            424            7958           2821           66811          2.9242239e-12
       190   524.3421           78910   418            424            8070           2878           67120          2.9600522e-12
       191   531.80737          79411   418            423            8209           2922           67439          2.9964214e-12
       192   539.38363          79887   418            423            8344           2970           67732          3.0331692e-12
       193   547.01351          80392   416            423            8477           3028           68048          3.0704895e-12
       194   554.73784          80890   416            423            8588           3105           68358          3.1083939e-12
       195   562.52849          81397   415            423            8730           3165           68664          3.147315e-12 
       196   570.41429          81903   414            423            8843           3247           68976          3.1868345e-12
       197   578.39142          82397   412            422            8962           3315           69286          3.2272143e-12
       198   586.45569          82895   409            419            9126           3379           69562          3.2685749e-12
       199   594.54005          83392   409            419            9236           3448           69880          3.3117897e-12
       200   602.92571          83882   408            418            9364           3524           70168          3.3564487e-12
       201   611.20603          84415   406            416            9524           3590           70479          3.4024012e-12
       202   619.60767          84931   405            416            9657           3679           70774          3.4497595e-12
       203   628.03358          85410   403            415            9800           3750           71042          3.4985182e-12
       204   636.57762          85946   402            411            9971           3823           71339          3.5490079e-12
       205   645.18973          86464   402            411            10129          3893           71629          3.600815e-12 
       206   653.8665           86995   400            410            10280          3991           71914          3.6547734e-12
       207   662.64075          87533   396            410            10443          4079           72205          3.7099042e-12
       208   671.51018          88078   394            408            10602          4176           72498          3.7667814e-12
       209   680.48972          88606   393            408            10782          4257           72766          3.8264853e-12
       210   689.798            89213   393            408            11006          4336           73070          3.8899369e-12
       211   699.01875          89737   392            408            11180          4420           73337          3.9563127e-12
       212   708.36899          90296   388            408            11396          4496           73608          4.0251572e-12
       213   717.78934          90890   386            408            11620          4577           73899          4.0971971e-12
       214   727.3155           91474   382            408            11880          4647           74157          4.171931e-12 
       215   736.99245          92072   381            406            12136          4718           74431          4.2503932e-12
       216   746.76808          92674   380            403            12381          4794           74716          4.3326312e-12
       217   756.65011          93282   379            399            12652          4878           74974          4.4223779e-12
       218   766.65611          93959   378            398            12978          4945           75260          4.5200894e-12
       219   776.81117          94613   377            398            13289          5034           75515          4.6278532e-12
       220   787.33705          95315   377            397            13637          5120           75784          4.7469151e-12
       221   797.78796          96040   373            396            14030          5207           76034          4.875099e-12 
       222   808.54901          96793   372            395            14415          5296           76315          5.0089068e-12
       223   819.43511          97542   371            392            14820          5373           76586          5.143529e-12 
       224   830.46661          98308   369            390            15257          5461           76831          5.2852679e-12
       225   841.68347          99087   369            388            15688          5548           77094          5.4270395e-12
       226   853.07252          99849   366            388            16102          5644           77349          5.5652408e-12
       227   864.60474         100568   365            387            16495          5730           77591          5.6936079e-12
       228   876.28982         101374   362            383            16939          5841           77849          5.8427586e-12
       229   888.1398          102167   362            381            17367          5973           78084          5.9866914e-12
       230   900.32602         102923   361            381            17759          6086           78336          6.1221298e-12
       231   912.41596         103749   359            377            18227          6213           78573          6.2672065e-12
       232   924.6521          104567   359            373            18673          6328           78834          6.4134362e-12
       233   936.94684         105388   358            370            19145          6467           79048          6.5609561e-12
       234   949.34075         106204   357            366            19593          6583           79305          6.7100547e-12
       235   961.86775         107019   356            361            20070          6718           79514          6.8628091e-12
       236   974.47763         107857   355            357            20515          6885           79745          7.0276078e-12
       237   987.18437         108674   355            357            20978          7010           79974          7.1868157e-12
       238   1000.0045         109537   352            357            21500          7119           80209          7.3488359e-12
       239   1012.8719         110416   348            355            22023          7269           80421          7.5285661e-12
       240   1026.0785         111345   346            354            22611          7398           80636          7.7132253e-12
       241   1039.1118         112227   342            351            23142          7544           80848          7.8779502e-12
       242   1052.221          113106   337            349            23695          7690           81035          8.0637097e-12
       243   1065.3468         114042   332            346            24267          7849           81248          8.2443521e-12
       244   1078.508          114956   326            342            24820          8038           81430          8.4387332e-12
       245   1091.7202         115863   321            339            25379          8207           81617          8.6200703e-12
       246   1105.029          116767   319            338            25955          8365           81790          8.8139858e-12
       247   1118.3428         117713   317            338            26561          8531           81966          9.0001151e-12
       248   1131.6341         118730   314            335            27217          8726           82138          9.2048462e-12
       249   1144.9871         119619   309            333            27812          8883           82282          9.4053902e-12
       250   1158.7526         120572   304            327            28447          9091           82403          9.6100594e-12
       251   1172.2725         121510   301            324            28994          9341           82550          9.7895643e-12
       252   1185.8777         122494   297            320            29574          9601           82702          9.9927852e-12
       253   1199.5511         123437   293            318            30133          9864           82829          1.0174037e-11
       254   1213.2824         124390   290            311            30719          10133          82937          1.0392118e-11
       255   1227.0524         125227   283            303            31189          10425          83027          1.0555009e-11
       256   1240.8739         126126   279            301            31724          10696          83126          1.0734249e-11
       257   1254.7068         127039   272            296            32264          10977          83230          1.0911304e-11
       258   1268.6443         127964   263            290            32840          11238          83333          1.1101574e-11
       259   1282.6165         128799   260            284            33350          11495          83410          1.1262195e-11
       260   1296.9436         129613   255            276            33812          11791          83479          1.1389979e-11
       261   1310.9908         130386   251            269            34270          12058          83538          1.1537503e-11
       262   1325.1131         131168   246            267            34721          12330          83604          1.1653941e-11
       263   1339.2589         131907   239            261            35137          12593          83677          1.1769108e-11
       264   1353.4537         132658   230            251            35554          12884          83739          1.1864928e-11
       265   1367.6973         133290   225            246            35924          13119          83776          1.1947503e-11
       266   1382.0173         133967   219            240            36333          13349          83826          1.2011893e-11
       267   1396.386          134629   215            239            36717          13590          83868          1.2091219e-11
       268   1410.783          135235   204            229            37054          13838          83910          1.2163333e-11
       269   1425.2213         135843   197            223            37363          14112          83948          1.2211923e-11
       270   1440.0258         136384   191            215            37609          14380          83989          1.2247309e-11
       271   1454.5811         137034   181            210            37925          14693          84025          1.2293357e-11
       272   1469.2045         137612   177            198            38154          15022          84061          1.2341942e-11
       273   1483.8301         138134   170            193            38324          15358          84089          1.2378078e-11
       274   1498.5098         138638   165            186            38471          15701          84115          1.2382055e-11
       275   1513.202          139149   159            181            38634          16033          84142          1.2419764e-11
       276   1527.9368         139680   149            173            38829          16353          84176          1.2450395e-11
       277   1542.7506         140252   144            167            39068          16661          84212          1.2445035e-11
       278   1557.5885         140641   138            155            39103          17006          84239          1.2430153e-11
       279   1572.4647         141075   133            148            39151          17375          84268          1.2432435e-11
       280   1587.7115         141581   124            142            39315          17704          84296          1.2458321e-11
       281   1602.7619         142027   119            136            39414          18041          84317          1.2450409e-11
       282   1617.8023         142500   112            130            39540          18378          84340          1.2441785e-11
       283   1632.9004         142996   104            123            39705          18701          84363          1.2477811e-11
       284   1648.0799         143360   99             116            39756          18995          84394          1.2458477e-11
       285   1663.2935         143825   90             111            39880          19315          84429          1.2444313e-11
       286   1678.5547         144265   87             107            39998          19614          84459          1.2418879e-11
       287   1693.8594         144689   80             100            40052          19965          84492          1.2415587e-11
       288   1709.2121         145102   75             95             40105          20310          84517          1.2417796e-11
       289   1724.5921         145444   72             91             40122          20621          84538          1.2385931e-11
       290   1740.3285         145849   68             87             40175          20957          84562          1.239115e-11 
       291   1755.8408         146365   66             81             40303          21326          84589          1.2384348e-11
       292   1771.3862         146803   62             75             40417          21627          84622          1.2384329e-11
       293   1786.9766         147179   58             68             40394          22004          84655          1.2385454e-11
       294   1802.6083         147498   53             65             40360          22346          84674          1.2348322e-11
       295   1818.2815         147983   50             61             40454          22709          84709          1.2368998e-11
       296   1833.9869         148375   45             58             40474          23062          84736          1.2363331e-11
       297   1849.7902         148848   38             57             40557          23434          84762          1.2382007e-11
       298   1865.6448         149181   36             53             40548          23753          84791          1.2366354e-11
       299   1881.5635         149635   34             51             40647          24090          84813          1.2379639e-11
       300   1897.8765         149999   34             50             40630          24441          84844          1.2364908e-11
       301   1913.9068         150308   33             46             40594          24764          84871          1.2337286e-11
       302   1929.9671         150745   30             43             40708          25071          84893          1.2348664e-11
       303   1946.0869         151132   30             42             40705          25430          84925          1.2336673e-11
       304   1962.2538         151522   29             41             40699          25804          84949          1.2340591e-11
       305   1978.4379         151860   28             41             40690          26126          84975          1.2322934e-11
       306   1994.6525         152262   28             41             40726          26468          84999          1.2323791e-11
       307   2010.9478         152647   27             40             40774          26777          85029          1.2316509e-11
       308   2027.2979         152999   24             40             40744          27138          85053          1.2306509e-11
       309   2043.6769         153339   23             39             40688          27509          85080          1.2321858e-11
       310   2060.4847         153817   23             37             40721          27933          85103          1.2322698e-11
       311   2076.9803         154167   23             34             40662          28318          85130          1.2327061e-11
       312   2093.5188         154505   22             33             40589          28706          85155          1.2316745e-11
       313   2110.1207         154878   22             32             40521          29127          85176          1.2314669e-11
       314   2126.7969         155198   22             31             40397          29547          85201          1.2315131e-11
       315   2143.5406         155551   22             31             40302          29970          85226          1.2310059e-11
       316   2160.3492         155934   21             30             40241          30391          85251          1.2307889e-11
       317   2177.1807         156300   21             30             40114          30861          85274          1.2319276e-11
       318   2194.0477         156625   21             30             39941          31331          85302          1.2302731e-11
       319   2210.9493         156998   21             30             39809          31813          85325          1.2321066e-11
       320   2228.3417         157352   21             30             39667          32283          85351          1.2293622e-11
Loop time of 2228.34 on 16 procs for 320 steps with 157352 atoms

98.2% CPU use with 16 MPI tasks x 1 OpenMP threads

MPI task timing breakdown:
Section |  min time  |  avg time  |  max time  |%varavg| %total
---------------------------------------------------------------
Pair    | 559.29     | 642.03     | 769.66     | 262.9 | 28.81
Neigh   | 522.29     | 623.72     | 806.85     | 343.6 | 27.99
Comm    | 196.34     | 217.51     | 243.75     | 102.1 |  9.76
Output  | 5.865      | 5.8652     | 5.8661     |   0.0 |  0.26
Modify  | 412.25     | 727.9      | 917.33     | 593.2 | 32.67
Other   |            | 11.31      |            |       |  0.51

Nlocal:         9834.5 ave       13960 max        7906 min
Histogram: 6 2 1 1 2 1 0 1 1 1
Nghost:        7495.56 ave        9854 max        6224 min
Histogram: 2 5 3 1 0 1 1 1 0 2
Neighs:        94837.4 ave      106846 max       85703 min
Histogram: 4 1 1 2 1 0 4 0 1 2

Total # of neighbors = 1517399
Ave neighs/atom = 9.643341
Neighbor list builds = 28170
Dangerous builds = 27850

Total wall time: 0:37:32
