LAMMPS (23 Jun 2022 - Update 4)
  using 1 OpenMP thread(s) per MPI task
package omp 0
using multi-threaded neighbor list subroutines
#-----------------------------------------------------------------------------#
#                NUFEB Simulation: Heterotrophic Biofilm Growth               #
#-----------------------------------------------------------------------------#


#-----------------------------System Settings---------------------------------#

units si                                    # using si units (m, s, kg)
atom_style      coccus                      # using nufeb coccus atom style
atom_modify     map array sort 10 0         # map array - find atoms using indices
		                            # sort every 10

boundary        pp pp ff                    # periodic boundaries in x and y
                                            # fixed boundary in z

newton          off                         # forces between local and ghost
                                            # atoms are computed in each
					     # processor without communication

processors      * * 1                       # processor grid

comm_modify     vel yes                     # communicate velocities for ghost atoms

read_data       atom_ch.in	             # read atom.in file which defines domain size
Reading data file ...
  orthogonal box = (0 0 0) to (6e-05 6e-05 6e-05)
  4 by 4 by 1 MPI processor grid
  reading atoms ...
  150 atoms
  read_data CPU = 0.020 seconds
                                            # and initial atoms


#--------------------Microbes and Functional Groups-------------------------#

group           CROSS1   type 1               # assign type 1,2 atoms to CROSS group
50 atoms in group CROSS1
group           CROSS2   type 2
50 atoms in group CROSS2
group		CHEATER  type 3
50 atoms in group CHEATER
group           dead     type 4
0 atoms in group dead
group		EPS	 type 5
0 atoms in group EPS

neighbor        5e-7 bin                   # setting neighbour skin distance and style

neigh_modify    check yes                  # rebuild neighbour list if any atom
                                           # had moved more than half the skin distance


#--------------------------Mesh Grid and Substrates--------------------------#

# defining grid sytle, substrate names, and grid size
grid_style      nufeb/chemostat 3 sub metab1 metab2 5e-6

# set diffusion boundary conditions and initial concentrations (liquid:kg/m3)
grid_modify     set sub      pp pp nd  1.8e-4
No /omp style for force computation currently active
grid_modify     set metab1   pp pp nd  1e-4
No /omp style for force computation currently active
grid_modify     set metab2   pp pp nd  1e-4
No /omp style for force computation currently active


#--------------------------Biological Processes-------------------------------#

# heterotrophs growth
fix growth_cross1 CROSS1 nufeb/growth/cross1 sub 3.5e-5 metab2 4e-3 metab1 growth 0.009 yield 0.6 decay 2.6e-6 metab1_exp 20 epsyield 0.12 epsdens 30

fix growth_cross2 CROSS2 nufeb/growth/cross2 sub 3.5e-5 metab1 4e-3 metab2 growth 0.009 yield 0.6 decay 2.6e-6 metab2_exp 20 epsyield 0.12 epsdens 30

fix growth_cheater CHEATER nufeb/growth/cheater sub 3.5e-5 metab1 1e-3 metab2 1e-3 growth 0.009 yield 0.6 decay 2.6e-6

# heterotrophs division, division diameter: 1.36e-6
fix div1 CROSS1 nufeb/division/coccus 1.36e-6 1624
fix div2 CROSS2 nufeb/division/coccus 1.36e-6 6190
fix div3 CHEATER nufeb/division/coccus 1.36e-6 13798

fix death1 CROSS1 nufeb/death/diameter dead 5.43e-7
fix death2 CROSS2 nufeb/death/diameter dead 5.43e-7
fix death3 CHEATER nufeb/death/diameter dead 5.43e-7

# EPS secretion from heterotrophs
fix eps1 CROSS1 nufeb/eps_secretion 5 EPS 1.1 30 24448
fix eps2 CROSS2 nufeb/eps_secretion 5 EPS 1.1 30 38140

#---------------------------Physical Processes--------------------------------#

pair_style  gran/hooke/history 1e-4 NULL 1e-5 NULL 0.0 0    # pairwise interaction
pair_coeff  * *                                             # between atoms

# pairwise interaction between z-wall and atoms
fix wall all wall/gran hooke/history 1e-3 NULL 1e-4 NULL 0 0 zplane 0.0 1e-04

fix vis all viscous 1e-5                                    # viscous damping force

fix grav all gravity 9.81 vector 0.0 0.0 -1.0

fix nve all nve/limit 1e-7                                  # NVE integration with
                                                            # maximum distance limit


#---------------------------Post-Physical Processes---------------------------#

fix coeff_sub all nufeb/diffusion_coeff sub ratio 0.8       # defining diffusion coeff in the biofilm
fix coeff_metab1 all nufeb/diffusion_coeff metab1 ratio 0.8    # region is 80% of the value in liquid
fix coeff_metab2 all nufeb/diffusion_coeff metab2 ratio 0.8

#---------------------------Chemical Processes---------------------------------#

fix diff_sub all nufeb/diffusion_reaction sub 1e-9        # diffusion reaction for updating
fix diff_metab1 all nufeb/diffusion_reaction metab1 4e-9     # distribusion of substrate concentration
fix diff_metab2 all nufeb/diffusion_reaction metab2 4e-9

#--------------------------Computations and Outputs----------------------------#

variable mass equal "mass(all)"                             # total mass
variable ncross1 equal "count(CROSS1)"                      # total # of CROSS1
variable ncross2 equal "count(CROSS2)"                      # total # of CROSS2
variable ncheater equal "count(CHEATER)"
variable ndead equal "count(dead)"
variable neps equal "count(EPS)"

shell mkdir vtk_EPS_ch                                            # dump vtk files to /vtk folder
dump du1 all vtk 10 vtk_EPS_ch/dump*.vtu id type diameter         # require build NUFEB with vtk option
dump du2 all grid/vtk 10 vtk_EPS_ch/dump_%_*.vti con rea den gro

#dump du3 all movie 10 movie.avi type diameter view 80 60    # dump video
#dump_modify du3 acolor 1 blue acolor 2 lightgrey framerate 10


                                                            # dump hdf5 files to /hdf5 folder
#shell mkdir hdf5                                           # require build NUFEB with hdf5 option
#dump du3 all nufeb/hdf5 10 dump.h5 id type x y z vx vy vz fx fy fz radius conc reac

thermo_style custom step cpu atoms v_ncross1 v_ncross2 v_ncheater v_ndead v_neps v_mass     # screen and log outputs
thermo 1
thermo_modify   lost ignore

#-----------------------------------Run----------------------------------------#

# issue run command, define timesteps for physical (pairdt) and chemical (diffdt) processes
run_style nufeb diffdt 1e-4 difftol 1e-6 pairdt 1e-2 pairtol 1 pairmax 1000 diffmax 5000

timestep 12000                                               # define biological timesteps (1000s)

run 320                                                    # growing biofilm for 900x1000s
Generated 0 of 6 mixed pair_coeff terms from geometric mixing rule
Last active /omp style is pair_style gran/hooke/history/omp
Neighbor list info ...
  update every 1 steps, delay 10 steps, check yes
  max neighbors/atom: 2000, page size: 100000
  master list distance cutoff = 2.49e-06
  ghost atom cutoff = 2.49e-06
  binsize = 1.245e-06, bins = 49 49 49
  1 neighbor lists, perpetual/occasional/extra = 1 0 0
  (1) pair gran/hooke/history/omp, perpetual
      attributes: half, newton off, size, history, omp
      pair build: half/size/bin/newtoff/omp
      stencil: full/bin/3d
      bin: standard
Per MPI rank memory allocation (min/avg/max) = 11.02 | 11.02 | 11.02 Mbytes
   Step          CPU          Atoms      v_ncross1      v_ncross2      v_ncheater      v_ndead         v_neps         v_mass    
         0   0                    150   50             50             50             0              0              1.3295396e-13
         1   0.38327249           432   90             85             86             0              171            1.7285385e-13
         2   0.76011404           775   119            124            136            0              396            1.9561334e-13
         3   1.0864148           1120   131            147            177            0              665            2.1439942e-13
         4   1.3873687           1448   139            157            203            0              949            2.320131e-13 
         5   1.5833673           1764   141            164            223            0              1236           2.4911674e-13
         6   1.7549027           2090   148            171            231            0              1540           2.6591671e-13
         7   1.9155663           2428   153            180            250            0              1845           2.8262057e-13
         8   2.0650455           2768   158            186            264            0              2160           2.9914473e-13
         9   2.2007193           3126   165            194            285            0              2482           3.1515871e-13
        10   2.346863            3494   172            200            312            0              2810           3.3075568e-13
        11   2.4575188           3864   180            205            329            0              3150           3.4593661e-13
        12   2.5649854           4247   185            214            348            0              3500           3.6073934e-13
        13   2.6728024           4619   188            217            362            0              3852           3.7529724e-13
        14   2.7814541           5026   199            225            380            0              4222           3.8954266e-13
        15   2.8999064           5414   204            232            390            0              4588           4.0323339e-13
        16   2.9875259           5809   208            237            409            0              4955           4.1626185e-13
        17   3.0899137           6195   211            240            426            0              5318           4.2895044e-13
        18   3.2023417           6606   220            249            443            0              5694           4.4121815e-13
        19   3.3112882           7010   222            253            458            0              6077           4.5345685e-13
        20   3.4594506           7417   225            260            469            0              6463           4.6531263e-13
        21   3.5282496           7808   227            265            486            0              6830           4.7655692e-13
        22   3.6230707           8210   233            268            503            0              7206           4.8744743e-13
        23   3.7059928           8624   239            272            518            0              7595           4.9775137e-13
        24   3.7892585           9025   242            275            529            0              7979           5.0748687e-13
        25   3.8820545           9417   247            278            536            0              8356           5.1682092e-13
        26   3.9828178           9808   250            281            542            0              8735           5.2572741e-13
        27   4.065159           10207   252            287            557            0              9111           5.3429693e-13
        28   4.1759305          10612   258            290            570            0              9494           5.4267284e-13
        29   4.2665014          11017   262            296            576            0              9883           5.5091728e-13
        30   4.4610683          11429   268            302            583            0              10276          5.5904252e-13
        31   4.5572496          11831   269            304            597            0              10661          5.6701388e-13
        32   4.6761529          12219   270            306            607            0              11036          5.747077e-13 
        33   4.7776098          12630   271            308            616            0              11435          5.8203134e-13
        34   4.9153737          13022   272            312            624            0              11814          5.8909815e-13
        35   5.0500542          13426   274            315            632            0              12205          5.9562579e-13
        36   5.2069719          13802   274            317            638            0              12573          6.0190036e-13
        37   5.4197861          14230   279            319            647            0              12985          6.085661e-13 
        38   5.7180326          14613   285            322            652            0              13354          6.1450961e-13
        39   5.9623631          15014   290            324            655            0              13745          6.2019114e-13
        40   6.3389466          15423   293            326            665            0              14139          6.2586396e-13
        41   6.9246775          15826   296            327            668            0              14535          6.3122362e-13
        42   7.5771323          16228   300            327            674            0              14927          6.3601536e-13
        43   8.4740578          16664   307            330            681            0              15346          6.4067779e-13
        44   9.3509869          17060   309            334            685            0              15732          6.4494243e-13
        45   10.219575          17494   311            338            695            0              16150          6.4936815e-13
        46   11.120046          17917   314            339            699            0              16565          6.5366377e-13
        47   12.040171          18319   315            340            706            0              16958          6.5777962e-13
        48   12.996506          18750   318            341            713            0              17378          6.6205368e-13
        49   13.943817          19155   321            343            723            0              17768          6.6561662e-13
        50   14.947747          19596   324            344            731            0              18197          6.693406e-13 
        51   15.922077          19986   324            345            739            0              18578          6.7274394e-13
        52   16.943841          20430   326            347            742            0              19015          6.7642022e-13
        53   17.969955          20849   334            349            751            0              19415          6.796811e-13 
        54   19.043466          21295   339            351            755            0              19850          6.8317225e-13
        55   20.120885          21694   339            351            758            0              20246          6.8645164e-13
        56   21.227252          22135   340            352            760            1              20682          6.8977197e-13
        57   22.361429          22540   342            354            761            1              21082          6.9266151e-13
        58   23.506749          22976   345            355            767            1              21508          6.954467e-13 
        59   24.675386          23395   346            357            768            1              21923          6.9814046e-13
        60   25.939735          23819   347            360            770            1              22341          7.0075708e-13
        61   27.166206          24244   350            364            775            1              22754          7.0335876e-13
        62   28.420166          24700   353            365            775            4              23203          7.0601649e-13
        63   29.685862          25128   355            366            780            4              23623          7.0836313e-13
        64   30.982914          25567   358            368            781            5              24055          7.1067124e-13
        65   32.295579          25986   358            369            783            6              24470          7.1289024e-13
        66   33.673269          26451   362            370            787            6              24926          7.1523162e-13
        67   35.044029          26877   364            372            788            8              25345          7.1716807e-13
        68   36.445373          27320   366            374            787            11             25782          7.1918563e-13
        69   37.870923          27751   367            375            783            16             26210          7.2116819e-13
        70   39.421731          28184   371            379            781            21             26632          7.2316887e-13
        71   40.912392          28639   371            381            783            22             27082          7.2523807e-13
        72   42.451045          29078   372            381            781            27             27517          7.2726218e-13
        73   44.019005          29520   375            381            780            31             27953          7.2948983e-13
        74   45.625317          29962   377            382            783            32             28388          7.3189849e-13
        75   47.246847          30398   379            384            783            37             28815          7.3404077e-13
        76   48.917966          30847   381            384            780            44             29258          7.3622299e-13
        77   50.640381          31292   382            384            780            48             29698          7.3854314e-13
        78   52.394881          31723   383            385            775            54             30126          7.4089082e-13
        79   54.175285          32182   384            388            777            57             30576          7.4346882e-13
        80   56.099605          32613   384            392            775            63             30999          7.4599814e-13
        81   57.998551          33084   384            393            777            68             31462          7.4938456e-13
        82   59.927062          33523   387            396            778            75             31887          7.5348548e-13
        83   61.89372           33983   389            397            785            80             32332          7.5806462e-13
        84   63.884853          34428   390            399            791            83             32765          7.6292425e-13
        85   65.939467          34875   393            399            799            90             33194          7.6817546e-13
        86   68.019591          35333   396            400            807            95             33635          7.7400908e-13
        87   70.195969          35788   396            400            825            97             34070          7.8047795e-13
        88   72.433441          36245   398            403            835            102            34507          7.8773575e-13
        89   74.664654          36709   400            404            852            110            34943          7.9592942e-13
        90   77.036082          37147   400            404            864            115            35364          8.0448961e-13
        91   79.37684           37587   400            405            883            123            35776          8.1366681e-13
        92   81.732519          38045   401            408            906            128            36202          8.236781e-13 
        93   84.126365          38507   401            410            931            131            36634          8.3428231e-13
        94   86.499315          38937   402            410            964            135            37026          8.4530942e-13
        95   88.964648          39382   402            410            988            140            37442          8.5660655e-13
        96   91.439329          39830   404            412            1019           144            37851          8.6839783e-13
        97   93.978501          40280   405            413            1046           152            38264          8.8038438e-13
        98   96.536917          40716   406            414            1077           154            38665          8.927247e-13 
        99   99.122279          41156   406            416            1116           160            39058          9.0509033e-13
       100   101.90668          41598   408            418            1141           169            39462          9.1765007e-13
       101   104.58446          42007   408            418            1171           178            39832          9.3038125e-13
       102   107.28476          42447   409            421            1195           184            40238          9.4339327e-13
       103   110.07897          42870   410            423            1227           189            40621          9.5652695e-13
       104   112.88625          43304   410            424            1272           195            41003          9.6983259e-13
       105   115.69619          43719   412            426            1304           199            41378          9.8348515e-13
       106   118.5946           44123   412            427            1336           203            41745          9.9679836e-13
       107   121.5025           44552   413            431            1374           211            42123          1.0105963e-12
       108   124.5305           44966   414            431            1413           218            42490          1.0245331e-12
       109   127.53987          45381   416            432            1450           224            42859          1.0388574e-12
       110   130.76872          45790   417            434            1490           229            43220          1.0530422e-12
       111   133.85799          46183   420            435            1519           236            43573          1.0677733e-12
       112   137.02361          46607   423            440            1555           242            43947          1.0825008e-12
       113   140.22769          47012   425            441            1589           253            44304          1.097261e-12 
       114   143.47389          47394   428            441            1619           263            44643          1.1116609e-12
       115   146.72448          47815   431            448            1656           270            45010          1.1260484e-12
       116   150.05246          48233   434            449            1704           276            45370          1.1403056e-12
       117   153.39954          48632   437            449            1746           282            45718          1.1539229e-12
       118   156.77851          49009   440            451            1778           292            46048          1.1669407e-12
       119   160.19755          49422   441            455            1822           300            46404          1.1798372e-12
       120   163.76393          49819   442            457            1843           316            46761          1.1918215e-12
       121   167.23817          50225   451            459            1872           327            47116          1.2031659e-12
       122   170.80613          50608   452            461            1903           338            47454          1.2140344e-12
       123   174.36223          51033   456            462            1931           356            47828          1.2240571e-12
       124   177.96534          51409   456            463            1957           361            48172          1.2332792e-12
       125   181.76924          51845   457            465            1991           375            48557          1.2421702e-12
       126   185.44218          52287   460            468            2016           390            48953          1.2496702e-12
       127   189.21766          52730   462            473            2031           408            49356          1.2567702e-12
       128   193.05667          53163   463            475            2037           432            49756          1.2635699e-12
       129   196.95032          53616   464            477            2061           444            50170          1.2707731e-12
       130   201.08007          54064   466            479            2081           461            50577          1.277077e-12 
       131   205.11633          54526   469            480            2087           488            51002          1.2836871e-12
       132   209.19794          54975   472            480            2106           509            51408          1.2905598e-12
       133   213.33034          55441   472            482            2125           532            51830          1.2977495e-12
       134   217.4895           55926   475            484            2140           554            52273          1.3049244e-12
       135   221.68421          56365   477            484            2153           571            52680          1.3121228e-12
       136   225.93187          56865   478            484            2177           599            53127          1.3193384e-12
       137   230.23898          57359   481            484            2195           619            53580          1.3263328e-12
       138   234.60581          57845   482            484            2225           636            54018          1.3332559e-12
       139   239.03369          58346   482            485            2245           651            54483          1.340218e-12 
       140   243.65027          58848   482            486            2267           675            54938          1.3464151e-12
       141   248.17957          59362   482            487            2286           699            55408          1.3524901e-12
       142   252.76682          59871   482            488            2317           712            55872          1.3589157e-12
       143   257.42733          60410   484            488            2340           723            56375          1.3651428e-12
       144   262.16476          60915   484            489            2376           738            56828          1.3711358e-12
       145   267.01027          61464   485            489            2416           747            57327          1.3775513e-12
       146   271.94599          62000   485            490            2451           763            57811          1.3844314e-12
       147   276.99253          62541   485            492            2486           774            58304          1.3921036e-12
       148   282.10055          63058   485            492            2520           784            58777          1.4007801e-12
       149   287.28251          63582   485            493            2549           800            59255          1.4100376e-12
       150   292.73037          64148   485            494            2592           810            59767          1.4204285e-12
       151   298.06801          64656   486            494            2631           816            60229          1.4317164e-12
       152   303.5445           65209   486            494            2691           819            60719          1.4439094e-12
       153   309.02693          65745   487            494            2752           827            61185          1.4568794e-12
       154   314.58564          66275   487            494            2793           841            61660          1.4706164e-12
       155   320.20865          66802   489            494            2848           848            62123          1.4848303e-12
       156   325.84815          67331   490            494            2906           860            62581          1.499388e-12 
       157   331.52356          67873   491            494            2957           882            63049          1.5142025e-12
       158   337.28693          68419   491            494            3018           895            63521          1.5288625e-12
       159   343.13985          68936   491            494            3046           922            63983          1.5437369e-12
       160   349.24222          69462   491            494            3088           947            64442          1.5588167e-12
       161   355.2947           69987   491            493            3112           986            64905          1.5738798e-12
       162   361.39177          70515   491            494            3152           1020           65358          1.5894927e-12
       163   367.60727          71054   491            492            3207           1054           65810          1.6054757e-12
       164   373.91168          71586   492            492            3234           1088           66280          1.6223038e-12
       165   380.27062          72092   493            491            3287           1110           66711          1.639956e-12 
       166   386.69581          72632   493            490            3335           1138           67176          1.6581628e-12
       167   393.22282          73149   493            490            3385           1170           67611          1.6767609e-12
       168   399.81126          73683   493            490            3436           1203           68061          1.6959439e-12
       169   406.44503          74180   493            490            3486           1226           68485          1.7153557e-12
       170   413.34208          74742   493            490            3556           1251           68952          1.7350873e-12
       171   420.10992          75213   493            491            3600           1272           69357          1.7547386e-12
       172   427.00945          75761   493            492            3668           1289           69819          1.7745964e-12
       173   433.96184          76272   493            491            3747           1302           70239          1.7949793e-12
       174   441.07055          76805   493            491            3842           1305           70674          1.8157301e-12
       175   448.24751          77318   493            490            3933           1310           71092          1.8367842e-12
       176   455.50662          77830   493            490            4008           1318           71521          1.8582782e-12
       177   462.86143          78355   493            488            4101           1329           71944          1.8802851e-12
       178   470.29332          78862   492            487            4192           1339           72352          1.9037363e-12
       179   477.79542          79386   492            486            4283           1348           72777          1.9282005e-12
       180   485.56783          79889   492            484            4375           1360           73178          1.9531827e-12
       181   493.19949          80421   492            484            4477           1370           73598          1.9788106e-12
       182   500.86586          80922   492            484            4585           1382           73979          2.0050894e-12
       183   508.61206          81480   492            484            4689           1399           74416          2.0319143e-12
       184   516.45817          81993   491            484            4787           1421           74810          2.0588669e-12
       185   524.38009          82511   491            482            4883           1455           75200          2.0861517e-12
       186   532.40125          83041   491            482            4991           1474           75603          2.1136213e-12
       187   540.51979          83570   491            483            5083           1501           76012          2.1421298e-12
       188   548.71438          84068   491            483            5169           1534           76391          2.1706036e-12
       189   557.01965          84579   489            483            5243           1579           76785          2.1997993e-12
       190   565.54132          85105   489            483            5336           1618           77179          2.2297857e-12
       191   573.96708          85635   488            483            5438           1653           77573          2.2608436e-12
       192   582.45127          86170   487            483            5539           1711           77950          2.2929859e-12
       193   591.00602          86674   486            482            5619           1765           78322          2.325261e-12 
       194   599.6661           87218   486            482            5710           1817           78723          2.3580526e-12
       195   608.41819          87738   485            481            5805           1872           79095          2.3909095e-12
       196   617.23983          88277   485            481            5891           1926           79494          2.4241378e-12
       197   626.16591          88781   484            480            6000           1983           79834          2.4575681e-12
       198   635.21923          89308   483            480            6099           2022           80224          2.4917356e-12
       199   644.31767          89839   483            481            6219           2060           80596          2.526263e-12 
       200   653.77785          90358   483            481            6327           2104           80963          2.5609725e-12
       201   663.08073          90888   482            481            6425           2153           81347          2.5970471e-12
       202   672.52233          91403   482            481            6529           2212           81699          2.6332175e-12
       203   682.08645          91944   482            480            6648           2259           82075          2.6702673e-12
       204   691.69002          92476   482            480            6744           2320           82450          2.7083955e-12
       205   701.41756          92971   482            480            6856           2362           82791          2.7466228e-12
       206   711.26123          93538   479            480            6981           2400           83198          2.7859931e-12
       207   721.18208          94045   479            479            7101           2456           83530          2.8267381e-12
       208   731.27868          94600   479            479            7232           2514           83896          2.8687333e-12
       209   741.41401          95159   479            478            7384           2562           84256          2.9127572e-12
       210   751.88395          95706   479            478            7532           2599           84618          2.9582463e-12
       211   762.25488          96220   479            476            7672           2645           84948          3.0048926e-12
       212   772.73025          96792   478            475            7825           2690           85324          3.0535796e-12
       213   783.28133          97321   478            475            7962           2754           85652          3.1028453e-12
       214   793.90871          97873   477            475            8127           2802           85992          3.1535183e-12
       215   804.62679          98468   475            475            8304           2856           86358          3.2062925e-12
       216   815.43382          99030   475            475            8504           2900           86676          3.2607645e-12
       217   826.35724          99588   475            474            8674           2954           87011          3.31718e-12  
       218   837.39869         100169   475            474            8845           3018           87357          3.3747405e-12
       219   848.50521         100728   472            473            9041           3068           87674          3.4346176e-12
       220   859.95375         101345   470            473            9261           3122           88019          3.496545e-12 
       221   871.30433         101915   470            473            9461           3175           88336          3.5584385e-12
       222   882.76704         102534   470            470            9678           3238           88678          3.6217379e-12
       223   894.31883         103124   468            470            9901           3287           88998          3.68634e-12  
       224   905.96873         103755   465            469            10149          3354           89318          3.7535954e-12
       225   917.78645         104402   465            469            10404          3415           89649          3.8238183e-12
       226   929.65309         105012   463            469            10609          3494           89977          3.8974473e-12
       227   941.68797         105620   462            469            10840          3562           90287          3.9744083e-12
       228   953.90495         106286   462            468            11112          3636           90608          4.0553363e-12
       229   966.2593          106920   459            467            11340          3720           90934          4.1384282e-12
       230   978.97926         107525   457            465            11545          3821           91237          4.2256057e-12
       231   991.57249         108206   454            464            11825          3913           91550          4.3153594e-12
       232   1004.5429         108870   454            462            12088          3994           91872          4.4087196e-12
       233   1017.6074         109581   451            462            12394          4090           92184          4.5105318e-12
       234   1030.7724         110277   448            461            12707          4179           92482          4.6232362e-12
       235   1044.0985         111047   448            461            13063          4281           92794          4.7480248e-12
       236   1057.6632         111812   447            459            13410          4390           93106          4.8826345e-12
       237   1071.4117         112583   445            458            13775          4504           93401          5.0279956e-12
       238   1085.308          113432   445            457            14256          4566           93708          5.1816966e-12
       239   1099.4164         114252   444            457            14670          4667           94014          5.3405621e-12
       240   1114.0327         115141   441            456            15136          4785           94323          5.506919e-12 
       241   1128.5625         115979   439            455            15617          4870           94598          5.6814054e-12
       242   1143.3091         116893   438            454            16135          4957           94909          5.8527217e-12
       243   1158.2192         117803   435            453            16679          5046           95190          6.0342535e-12
       244   1173.3023         118704   435            452            17204          5146           95467          6.2189149e-12
       245   1188.561          119711   434            451            17807          5259           95760          6.4164726e-12
       246   1203.9543         120646   433            449            18369          5362           96033          6.6212534e-12
       247   1219.541          121670   432            447            19033          5453           96305          6.831208e-12 
       248   1235.2332         122677   430            446            19693          5541           96567          7.037813e-12 
       249   1251.0287         123633   429            442            20287          5651           96824          7.2352585e-12
       250   1267.2203         124694   427            438            20966          5755           97108          7.4467347e-12
       251   1283.1939         125635   426            436            21550          5873           97350          7.6410715e-12
       252   1299.2232         126633   425            433            22175          5986           97614          7.834209e-12 
       253   1315.3564         127670   421            431            22869          6097           97852          8.0429915e-12
       254   1331.568          128685   419            427            23545          6195           98099          8.2467031e-12
       255   1347.8521         129634   416            425            24145          6321           98327          8.4203629e-12
       256   1364.2399         130626   413            422            24798          6427           98566          8.616892e-12 
       257   1380.7161         131608   410            421            25452          6551           98774          8.8189158e-12
       258   1397.2942         132662   407            419            26170          6668           98998          9.0144583e-12
       259   1413.9461         133627   406            416            26804          6816           99185          9.200452e-12 
       260   1431.0438         134676   401            416            27495          6974           99390          9.4064073e-12
       261   1447.9171         135637   398            413            28097          7156           99573          9.6011313e-12
       262   1464.8121         136614   396            413            28705          7333           99767          9.7809698e-12
       263   1481.7443         137612   395            410            29369          7520           99918          9.9855437e-12
       264   1498.7932         138594   390            409            29988          7734           100073         1.0163753e-11
       265   1515.9013         139556   389            408            30534          7981           100244         1.0350239e-11
       266   1533.0425         140412   385            403            31012          8231           100381         1.0510227e-11
       267   1550.2437         141356   381            399            31555          8508           100513         1.0679354e-11
       268   1567.5245         142365   376            392            32161          8797           100639         1.0875924e-11
       269   1584.8964         143212   373            386            32627          9072           100754         1.1006547e-11
       270   1602.6611         144150   371            383            33165          9355           100876         1.1164898e-11
       271   1620.1388         144957   363            377            33615          9641           100961         1.1332306e-11
       272   1637.6204         145817   360            375            34103          9928           101051         1.1461091e-11
       273   1655.1725         146637   355            371            34536          10219          101156         1.1595367e-11
       274   1672.8136         147424   350            367            34975          10498          101234         1.1693734e-11
       275   1690.5387         148174   343            361            35390          10776          101304         1.1819054e-11
       276   1708.3291         148996   335            357            35894          11022          101388         1.1934129e-11
       277   1726.1599         149642   328            352            36259          11259          101444         1.2010237e-11
       278   1744.0494         150370   320            347            36685          11514          101504         1.2107994e-11
       279   1761.9496         151028   315            341            37019          11789          101564         1.2175474e-11
       280   1780.2304         151631   309            333            37310          12058          101621         1.2233333e-11
       281   1798.1974         152318   303            325            37718          12300          101672         1.2300003e-11
       282   1816.2828         152945   298            315            38055          12554          101723         1.2341326e-11
       283   1834.3826         153544   293            302            38339          12844          101766         1.2389275e-11
       284   1852.5757         154060   282            293            38527          13154          101804         1.2405696e-11
       285   1870.8279         154639   270            287            38763          13470          101849         1.244732e-11 
       286   1889.1123         155181   264            279            38974          13773          101891         1.2467401e-11
       287   1907.4522         155739   258            270            39179          14110          101922         1.2491505e-11
       288   1925.9068         156260   249            261            39326          14455          101969         1.249419e-11 
       289   1944.3855         156772   242            253            39474          14797          102006         1.2508073e-11
       290   1963.2442         157222   237            244            39556          15139          102046         1.2512338e-11
       291   1981.8339         157702   229            234            39679          15480          102080         1.2500218e-11
       292   2000.5033         158208   220            224            39824          15825          102115         1.2514084e-11
       293   2019.2246         158702   210            218            39958          16156          102160         1.2506997e-11
       294   2037.9541         159134   199            212            40049          16479          102195         1.2500439e-11
       295   2056.7652         159569   194            204            40098          16844          102229         1.2481888e-11
       296   2075.6394         160045   184            194            40205          17190          102272         1.2496431e-11
       297   2094.5546         160449   174            185            40256          17520          102314         1.2487695e-11
       298   2113.547          160956   168            177            40390          17863          102358         1.2486478e-11
       299   2132.5944         161399   158            163            40480          18204          102394         1.2472263e-11
       300   2152.0453         161852   148            153            40542          18588          102421         1.247188e-11 
       301   2171.1658         162259   145            147            40584          18926          102457         1.2466524e-11
       302   2190.3646         162623   134            139            40548          19298          102504         1.2441017e-11
       303   2209.5933         163069   129            133            40593          19668          102546         1.2443814e-11
       304   2228.8722         163545   119            122            40663          20059          102582         1.243103e-11 
       305   2248.1921         164014   113            114            40765          20404          102618         1.2434086e-11
       306   2267.5627         164380   105            107            40772          20750          102646         1.2442552e-11
       307   2287.0116         164775   99             101            40779          21112          102684         1.2435282e-11
       308   2306.4771         165144   95             96             40755          21474          102724         1.2391272e-11
       309   2326.0339         165564   89             91             40796          21818          102770         1.2383978e-11
       310   2346.0027         166018   83             81             40844          22205          102805         1.2391116e-11
       311   2365.6801         166412   80             76             40860          22562          102834         1.2385896e-11
       312   2385.3658         166835   78             70             40896          22920          102871         1.2384552e-11
       313   2405.1093         167212   72             62             40866          23309          102903         1.2382973e-11
       314   2424.8866         167565   63             58             40798          23715          102931         1.2362291e-11
       315   2444.7195         168028   63             55             40878          24061          102971         1.235756e-11 
       316   2464.5852         168375   61             52             40850          24411          103001         1.2357611e-11
       317   2484.5097         168767   55             50             40866          24764          103032         1.2361589e-11
       318   2504.5304         169135   53             48             40828          25139          103067         1.2364147e-11
       319   2524.562          169561   50             44             40864          25505          103098         1.2366758e-11
       320   2545.0113         169947   48             42             40834          25895          103128         1.2355138e-11
Loop time of 2545.01 on 16 procs for 320 steps with 169947 atoms

98.2% CPU use with 16 MPI tasks x 1 OpenMP threads

MPI task timing breakdown:
Section |  min time  |  avg time  |  max time  |%varavg| %total
---------------------------------------------------------------
Pair    | 657.96     | 742.46     | 883.94     | 237.5 | 29.17
Neigh   | 653.71     | 743.14     | 930.48     | 313.8 | 29.20
Comm    | 219.51     | 243.36     | 265.95     |  99.6 |  9.56
Output  | 6.1015     | 6.1016     | 6.1025     |   0.0 |  0.24
Modify  | 448.26     | 798.85     | 959.07     | 544.8 | 31.39
Other   |            | 11.1       |            |       |  0.44

Nlocal:        10621.7 ave       15058 max        8959 min
Histogram: 9 1 1 0 2 0 0 0 2 1
Nghost:        8176.56 ave       10776 max        7021 min
Histogram: 5 4 1 0 1 2 1 1 0 1
Neighs:         107768 ave      124059 max       99492 min
Histogram: 5 2 1 2 3 0 0 1 1 1

Total # of neighbors = 1724293
Ave neighs/atom = 10.146063
Neighbor list builds = 28172
Dangerous builds = 27852

Total wall time: 0:42:45
