LAMMPS (23 Jun 2022 - Update 4)
  using 1 OpenMP thread(s) per MPI task
package omp 0
using multi-threaded neighbor list subroutines
#-----------------------------------------------------------------------------#
#                NUFEB Simulation: Heterotrophic Biofilm Growth               #
#-----------------------------------------------------------------------------#


#-----------------------------System Settings---------------------------------#

units si                                    # using si units (m, s, kg)
atom_style      coccus                      # using nufeb coccus atom style
atom_modify     map array sort 10 0         # map array - find atoms using indices
		                            # sort every 10

boundary        pp pp ff                    # periodic boundaries in x and y
                                            # fixed boundary in z

newton          off                         # forces between local and ghost
                                            # atoms are computed in each
					     # processor without communication

processors      * * 1                       # processor grid

comm_modify     vel yes                     # communicate velocities for ghost atoms

read_data       atom_ch.in	             # read atom.in file which defines domain size
Reading data file ...
  orthogonal box = (0 0 0) to (6e-05 6e-05 6e-05)
  4 by 4 by 1 MPI processor grid
  reading atoms ...
  150 atoms
  read_data CPU = 0.015 seconds
                                            # and initial atoms


#--------------------Microbes and Functional Groups-------------------------#

group           CROSS1   type 1               # assign type 1,2 atoms to CROSS group
50 atoms in group CROSS1
group           CROSS2   type 2
50 atoms in group CROSS2
group		CHEATER  type 3
50 atoms in group CHEATER
group           dead     type 4
0 atoms in group dead
group		EPS	 type 5
0 atoms in group EPS

neighbor        5e-7 bin                   # setting neighbour skin distance and style

neigh_modify    check yes                  # rebuild neighbour list if any atom
                                           # had moved more than half the skin distance


#--------------------------Mesh Grid and Substrates--------------------------#

# defining grid sytle, substrate names, and grid size
grid_style      nufeb/chemostat 3 sub metab1 metab2 5e-6

# set diffusion boundary conditions and initial concentrations (liquid:kg/m3)
grid_modify     set sub      pp pp nd  1.8e-4
No /omp style for force computation currently active
grid_modify     set metab1   pp pp nd  1e-4
No /omp style for force computation currently active
grid_modify     set metab2   pp pp nd  1e-4
No /omp style for force computation currently active


#--------------------------Biological Processes-------------------------------#

# heterotrophs growth
fix growth_cross1 CROSS1 nufeb/growth/cross1 sub 3.5e-5 metab2 4e-3 metab1 growth 0.009 yield 0.6 decay 2.6e-6 metab1_exp 20 epsyield 0.12 epsdens 30

fix growth_cross2 CROSS2 nufeb/growth/cross2 sub 3.5e-5 metab1 4e-3 metab2 growth 0.009 yield 0.6 decay 2.6e-6 metab2_exp 20 epsyield 0.12 epsdens 30

fix growth_cheater CHEATER nufeb/growth/cheater sub 3.5e-5 metab1 1e-3 metab2 1e-3 growth 0.009 yield 0.6 decay 2.6e-6

# heterotrophs division, division diameter: 1.36e-6
fix div1 CROSS1 nufeb/division/coccus 1.36e-6 1867
fix div2 CROSS2 nufeb/division/coccus 1.36e-6 7162
fix div3 CHEATER nufeb/division/coccus 1.36e-6 15985

fix death1 CROSS1 nufeb/death/diameter dead 5.43e-7
fix death2 CROSS2 nufeb/death/diameter dead 5.43e-7
fix death3 CHEATER nufeb/death/diameter dead 5.43e-7

# EPS secretion from heterotrophs
fix eps1 CROSS1 nufeb/eps_secretion 5 EPS 1.1 30 28336
fix eps2 CROSS2 nufeb/eps_secretion 5 EPS 1.1 30 44215

#---------------------------Physical Processes--------------------------------#

pair_style  gran/hooke/history 1e-4 NULL 1e-5 NULL 0.0 0    # pairwise interaction
pair_coeff  * *                                             # between atoms

# pairwise interaction between z-wall and atoms
fix wall all wall/gran hooke/history 1e-3 NULL 1e-4 NULL 0 0 zplane 0.0 1e-04

fix vis all viscous 1e-5                                    # viscous damping force

fix grav all gravity 9.81 vector 0.0 0.0 -1.0

fix nve all nve/limit 1e-7                                  # NVE integration with
                                                            # maximum distance limit


#---------------------------Post-Physical Processes---------------------------#

fix coeff_sub all nufeb/diffusion_coeff sub ratio 0.8       # defining diffusion coeff in the biofilm
fix coeff_metab1 all nufeb/diffusion_coeff metab1 ratio 0.8    # region is 80% of the value in liquid
fix coeff_metab2 all nufeb/diffusion_coeff metab2 ratio 0.8

#---------------------------Chemical Processes---------------------------------#

fix diff_sub all nufeb/diffusion_reaction sub 1e-9        # diffusion reaction for updating
fix diff_metab1 all nufeb/diffusion_reaction metab1 4e-9     # distribusion of substrate concentration
fix diff_metab2 all nufeb/diffusion_reaction metab2 4e-9

#--------------------------Computations and Outputs----------------------------#

variable mass equal "mass(all)"                             # total mass
variable ncross1 equal "count(CROSS1)"                      # total # of CROSS1
variable ncross2 equal "count(CROSS2)"                      # total # of CROSS2
variable ncheater equal "count(CHEATER)"
variable ndead equal "count(dead)"
variable neps equal "count(EPS)"

shell mkdir vtk_EPS_ch                                            # dump vtk files to /vtk folder
dump du1 all vtk 10 vtk_EPS_ch/dump*.vtu id type diameter         # require build NUFEB with vtk option
dump du2 all grid/vtk 10 vtk_EPS_ch/dump_%_*.vti con rea den gro

#dump du3 all movie 10 movie.avi type diameter view 80 60    # dump video
#dump_modify du3 acolor 1 blue acolor 2 lightgrey framerate 10


                                                            # dump hdf5 files to /hdf5 folder
#shell mkdir hdf5                                           # require build NUFEB with hdf5 option
#dump du3 all nufeb/hdf5 10 dump.h5 id type x y z vx vy vz fx fy fz radius conc reac

thermo_style custom step cpu atoms v_ncross1 v_ncross2 v_ncheater v_ndead v_neps v_mass     # screen and log outputs
thermo 1
thermo_modify   lost ignore

#-----------------------------------Run----------------------------------------#

# issue run command, define timesteps for physical (pairdt) and chemical (diffdt) processes
run_style nufeb diffdt 1e-4 difftol 1e-6 pairdt 1e-2 pairtol 1 pairmax 1000 diffmax 5000

timestep 12000                                               # define biological timesteps (1000s)

run 320                                                    # growing biofilm for 900x1000s
Generated 0 of 6 mixed pair_coeff terms from geometric mixing rule
Last active /omp style is pair_style gran/hooke/history/omp
Neighbor list info ...
  update every 1 steps, delay 10 steps, check yes
  max neighbors/atom: 2000, page size: 100000
  master list distance cutoff = 2.49e-06
  ghost atom cutoff = 2.49e-06
  binsize = 1.245e-06, bins = 49 49 49
  1 neighbor lists, perpetual/occasional/extra = 1 0 0
  (1) pair gran/hooke/history/omp, perpetual
      attributes: half, newton off, size, history, omp
      pair build: half/size/bin/newtoff/omp
      stencil: full/bin/3d
      bin: standard
Per MPI rank memory allocation (min/avg/max) = 11.02 | 11.02 | 11.02 Mbytes
   Step          CPU          Atoms      v_ncross1      v_ncross2      v_ncheater      v_ndead         v_neps         v_mass    
         0   0                    150   50             50             50             0              0              1.3295396e-13
         1   0.3863705            432   90             85             86             0              171            1.7286268e-13
         2   0.76747403           788   118            125            135            0              410            1.957154e-13 
         3   1.0960052           1127   129            146            180            0              672            2.1502342e-13
         4   1.3955078           1430   134            154            206            0              936            2.330917e-13 
         5   1.6331829           1742   141            158            217            0              1226           2.5048757e-13
         6   1.8323145           2057   144            166            237            0              1510           2.6751474e-13
         7   1.995519            2392   153            176            253            0              1810           2.8415371e-13
         8   2.1397111           2753   164            181            271            0              2137           3.0038316e-13
         9   2.2821096           3104   172            190            289            0              2453           3.1610921e-13
        10   2.4374134           3480   178            196            310            0              2796           3.3168248e-13
        11   2.5813384           3847   184            203            327            0              3133           3.4686661e-13
        12   2.7021768           4254   192            214            345            0              3503           3.6185401e-13
        13   2.8083944           4632   194            219            362            0              3857           3.764445e-13 
        14   2.9475893           5020   196            226            375            0              4223           3.9078325e-13
        15   3.054951            5421   203            234            394            0              4590           4.0462405e-13
        16   3.1566902           5823   209            240            411            0              4963           4.1832914e-13
        17   3.2609069           6219   214            246            426            0              5333           4.3134432e-13
        18   3.3708706           6622   217            248            448            0              5709           4.4426666e-13
        19   3.48617             7033   220            252            468            0              6093           4.5689174e-13
        20   3.6628822           7413   224            254            481            0              6454           4.6914259e-13
        21   3.7771519           7812   230            255            497            0              6830           4.8121691e-13
        22   3.9098312           8219   238            259            509            0              7213           4.9306654e-13
        23   4.0399666           8599   239            262            527            0              7571           5.0470414e-13
        24   4.1785102           9007   244            265            555            0              7943           5.1630172e-13
        25   4.3171178           9413   250            271            572            0              8320           5.2786915e-13
        26   4.4494259           9801   253            274            588            0              8686           5.393713e-13 
        27   4.5650818          10186   256            275            603            0              9052           5.5055594e-13
        28   4.7410284          10582   260            279            623            0              9420           5.6151308e-13
        29   4.8912262          10990   264            283            636            0              9807           5.7279937e-13
        30   5.1012267          11386   266            287            658            0              10175          5.837923e-13 
        31   5.3239761          11798   271            292            685            0              10550          5.9482163e-13
        32   5.4732431          12169   273            292            697            0              10907          6.0550072e-13
        33   5.6509077          12580   274            298            720            0              11288          6.1621528e-13
        34   5.8280437          12977   277            301            737            0              11662          6.2690406e-13
        35   6.0121904          13372   282            306            756            0              12028          6.3744903e-13
        36   6.2286689          13771   283            308            775            0              12405          6.4768318e-13
        37   6.4157872          14158   286            309            795            0              12768          6.5694795e-13
        38   6.714374           14551   288            310            804            0              13149          6.6645863e-13
        39   7.0073422          14941   289            313            824            0              13515          6.7565253e-13
        40   7.344888           15342   291            315            844            0              13892          6.8474892e-13
        41   7.8699388          15727   294            318            862            0              14253          6.9340599e-13
        42   8.4719959          16124   296            320            882            0              14626          7.0141324e-13
        43   9.1078584          16533   299            322            896            0              15016          7.0919177e-13
        44   9.7749476          16913   303            325            913            0              15372          7.1713803e-13
        45   10.725475          17322   306            326            929            0              15761          7.2519341e-13
        46   11.30303           17701   309            328            945            0              16119          7.3334653e-13
        47   12.350053          18112   313            328            961            0              16510          7.4199509e-13
        48   13.452388          18504   314            328            988            0              16874          7.5093067e-13
        49   14.53323           18906   318            328            1007           0              17253          7.6051555e-13
        50   15.703636          19308   319            329            1032           0              17628          7.7051959e-13
        51   16.793091          19703   321            331            1058           0              17993          7.8064396e-13
        52   17.922377          20112   322            332            1082           0              18376          7.9095824e-13
        53   19.022007          20485   324            333            1110           0              18718          8.0120677e-13
        54   20.134506          20919   329            333            1140           0              19117          8.1164647e-13
        55   21.274648          21300   331            334            1169           0              19466          8.2136429e-13
        56   22.396317          21734   335            336            1193           0              19870          8.3095078e-13
        57   23.536577          22118   336            336            1226           0              20220          8.399034e-13 
        58   24.69207           22542   340            336            1250           1              20615          8.4874346e-13
        59   25.879864          22942   341            338            1278           2              20983          8.5720247e-13
        60   27.147886          23361   343            339            1298           4              21377          8.6574837e-13
        61   28.474549          23755   343            340            1321           4              21747          8.7390818e-13
        62   29.868606          24159   344            341            1346           6              22122          8.8307274e-13
        63   31.300883          24566   347            341            1379           9              22490          8.9286342e-13
        64   32.73327           24979   348            341            1409           12             22869          9.0314203e-13
        65   34.231303          25365   348            341            1431           17             23228          9.1380172e-13
        66   35.746914          25797   349            342            1468           19             23619          9.2556428e-13
        67   37.271588          26181   352            343            1510           20             23956          9.3771627e-13
        68   38.815741          26617   354            345            1545           24             24349          9.5059145e-13
        69   40.366783          26996   354            346            1579           30             24687          9.6346063e-13
        70   41.971111          27423   355            347            1614           39             25068          9.7662424e-13
        71   43.526003          27827   356            348            1651           44             25428          9.8944101e-13
        72   45.097647          28239   358            348            1684           50             25799          1.0022047e-12
        73   46.753866          28646   358            349            1733           59             26147          1.0146755e-12
        74   48.435715          29067   359            349            1768           68             26523          1.0274146e-12
        75   50.103071          29461   359            351            1795           81             26875          1.0405517e-12
        76   51.849113          29867   359            351            1842           87             27228          1.0534675e-12
        77   53.700681          30267   359            351            1868           103            27586          1.0668917e-12
        78   55.569692          30662   361            351            1907           118            27925          1.0813745e-12
        79   57.514657          31085   361            352            1949           131            28292          1.0965058e-12
        80   59.533249          31468   362            352            1995           138            28621          1.1130187e-12
        81   61.548861          31897   362            352            2052           148            28983          1.1301596e-12
        82   63.577196          32288   363            352            2101           160            29312          1.1477538e-12
        83   65.575437          32710   364            354            2158           175            29659          1.1661224e-12
        84   67.594086          33122   364            355            2210           191            30002          1.1844447e-12
        85   69.637386          33518   364            355            2264           199            30336          1.2026783e-12
        86   71.72958           33917   364            355            2314           211            30673          1.2208102e-12
        87   73.855201          34329   364            355            2372           219            31019          1.2390683e-12
        88   76.047871          34741   364            355            2440           226            31356          1.2572309e-12
        89   78.27507           35137   365            355            2499           235            31683          1.2754753e-12
        90   80.636017          35549   365            355            2571           239            32019          1.294267e-12 
        91   82.93136           35959   365            355            2635           245            32359          1.3132573e-12
        92   85.307546          36350   365            355            2708           248            32674          1.3321478e-12
        93   87.707123          36737   365            355            2772           257            32988          1.3519233e-12
        94   90.151176          37159   365            355            2843           261            33335          1.3719895e-12
        95   92.626824          37563   365            356            2916           267            33659          1.3926086e-12
        96   95.127497          37965   366            357            2983           282            33977          1.4134605e-12
        97   97.661842          38365   366            357            3047           289            34306          1.4343959e-12
        98   100.24407          38761   366            357            3126           300            34612          1.4552315e-12
        99   102.88815          39169   367            358            3197           306            34941          1.4761734e-12
       100   105.69408          39566   367            358            3254           321            35266          1.4973296e-12
       101   108.46133          39993   367            360            3346           333            35587          1.5188804e-12
       102   111.29201          40405   368            360            3427           341            35909          1.5407356e-12
       103   114.15855          40792   368            360            3504           350            36210          1.5632556e-12
       104   117.10015          41209   368            360            3594           361            36526          1.5864568e-12
       105   120.07986          41624   368            361            3685           374            36836          1.6108226e-12
       106   123.09532          42010   368            361            3766           383            37132          1.6364714e-12
       107   126.13409          42433   368            362            3857           392            37454          1.662888e-12 
       108   129.23741          42846   368            362            3969           410            37737          1.6895333e-12
       109   132.38549          43261   368            362            4055           426            38050          1.7163146e-12
       110   135.68605          43652   368            362            4135           446            38341          1.7428696e-12
       111   138.91981          44065   368            363            4232           468            38634          1.7695001e-12
       112   142.20688          44490   368            364            4331           491            38936          1.7957824e-12
       113   145.5648           44909   368            364            4425           524            39228          1.8217394e-12
       114   148.96367          45284   368            364            4497           540            39515          1.848701e-12 
       115   152.4346           45712   368            364            4598           564            39818          1.8758297e-12
       116   155.96367          46109   368            366            4707           586            40082          1.9041954e-12
       117   159.55064          46545   368            367            4811           603            40396          1.9333094e-12
       118   163.21083          46946   368            368            4901           630            40679          1.9630357e-12
       119   166.91051          47350   368            368            4990           663            40961          1.9938575e-12
       120   170.80541          47765   368            369            5090           690            41248          2.0246623e-12
       121   174.6324           48177   368            369            5188           723            41529          2.0556711e-12
       122   178.51022          48592   368            369            5301           755            41799          2.0869696e-12
       123   182.46141          49035   368            370            5399           793            42105          2.1181463e-12
       124   186.48351          49421   369            370            5466           836            42380          2.1496954e-12
       125   190.56694          49875   369            371            5592           880            42663          2.1818804e-12
       126   194.71847          50314   369            373            5694           921            42957          2.2154187e-12
       127   198.93216          50739   369            374            5793           966            43237          2.2502958e-12
       128   203.21103          51151   368            375            5897           997            43514          2.2863565e-12
       129   207.58267          51612   368            375            6020           1036           43813          2.323429e-12 
       130   212.09841          52031   368            376            6138           1076           44073          2.3609224e-12
       131   216.58637          52491   368            376            6264           1118           44365          2.3988449e-12
       132   221.1585           52943   368            376            6385           1158           44656          2.4373879e-12
       133   225.82161          53380   367            377            6513           1194           44929          2.4762655e-12
       134   230.54536          53819   367            377            6646           1233           45196          2.5163358e-12
       135   235.3407           54270   367            379            6757           1267           45500          2.5574221e-12
       136   240.22852          54720   367            381            6901           1315           45756          2.6006236e-12
       137   245.1906           55200   366            382            7044           1352           46056          2.6464066e-12
       138   250.23504          55667   366            382            7179           1391           46349          2.6941968e-12
       139   255.36373          56115   366            382            7350           1432           46585          2.7433728e-12
       140   260.81056          56623   366            382            7515           1470           46890          2.7940422e-12
       141   266.14025          57129   366            382            7703           1510           47168          2.8459904e-12
       142   271.56024          57600   366            382            7854           1568           47430          2.8998963e-12
       143   277.08766          58085   366            382            8002           1622           47713          2.9547786e-12
       144   282.68026          58588   366            382            8168           1677           47995          3.013143e-12 
       145   288.36766          59083   366            381            8365           1721           48250          3.0728106e-12
       146   294.18036          59605   366            380            8576           1768           48515          3.1348594e-12
       147   300.1103           60149   366            380            8784           1813           48806          3.2001001e-12
       148   306.1304           60662   366            380            9003           1854           49059          3.2679641e-12
       149   312.24427          61170   366            380            9202           1896           49326          3.3373239e-12
       150   318.80596          61729   366            380            9433           1944           49606          3.4095707e-12
       151   325.15697          62274   365            381            9679           1997           49852          3.4842871e-12
       152   331.613            62848   365            381            9936           2044           50122          3.56377e-12  
       153   338.18713          63427   365            381            10196          2097           50388          3.6487107e-12
       154   344.88938          64009   365            381            10465          2146           50652          3.7388007e-12
       155   351.71425          64625   365            381            10765          2197           50917          3.8362343e-12
       156   358.72078          65254   365            382            11081          2250           51176          3.9434759e-12
       157   365.91355          65928   365            382            11441          2304           51436          4.0601209e-12
       158   373.25031          66618   365            382            11803          2360           51708          4.1870339e-12
       159   380.77327          67326   365            382            12179          2426           51974          4.3221442e-12
       160   388.6061           68036   365            382            12563          2500           52226          4.4610596e-12
       161   396.46444          68802   365            383            12996          2572           52486          4.6042108e-12
       162   404.46283          69533   365            383            13377          2663           52745          4.7475237e-12
       163   412.64945          70265   365            383            13783          2740           52994          4.8818834e-12
       164   420.96314          71023   365            382            14205          2820           53251          5.0233536e-12
       165   429.42569          71741   365            382            14599          2898           53497          5.1659583e-12
       166   438.09663          72536   365            381            15053          2984           53753          5.3197373e-12
       167   446.93563          73338   365            380            15527          3063           54003          5.4733261e-12
       168   455.94973          74139   365            380            15983          3155           54256          5.6242268e-12
       169   465.14434          74926   365            380            16440          3239           54502          5.7735625e-12
       170   474.6715           75671   365            380            16879          3311           54736          5.9198605e-12
       171   484.19796          76505   365            380            17387          3387           54986          6.0743244e-12
       172   493.88831          77378   365            379            17921          3483           55230          6.2323845e-12
       173   503.723            78179   365            380            18404          3582           55448          6.4083549e-12
       174   513.76054          79106   365            380            18991          3676           55694          6.5975828e-12
       175   523.94119          80024   365            379            19571          3780           55929          6.7687222e-12
       176   534.22433          80850   365            377            20082          3888           56138          6.9382031e-12
       177   544.63396          81728   365            377            20631          3994           56361          7.1157163e-12
       178   555.23927          82688   365            377            21262          4078           56606          7.3047538e-12
       179   565.94968          83558   365            376            21843          4175           56799          7.4832487e-12
       180   577.00158          84507   365            376            22465          4298           57003          7.68232e-12  
       181   587.99536          85460   364            376            23111          4391           57218          7.8880351e-12
       182   599.09398          86421   364            376            23763          4525           57393          8.0957081e-12
       183   610.3014           87326   364            376            24340          4649           57597          8.2942462e-12
       184   621.59915          88297   363            374            25027          4794           57739          8.5076563e-12
       185   632.98221          89199   363            370            25619          4933           57914          8.7022843e-12
       186   644.44794          90127   363            369            26241          5074           58080          8.8947995e-12
       187   656.03585          91178   363            368            26980          5228           58239          9.1211361e-12
       188   667.74164          92131   362            367            27644          5367           58391          9.3396955e-12
       189   679.50315          93101   361            366            28302          5557           58515          9.5605596e-12
       190   691.51576          94023   361            362            28914          5744           58642          9.7426153e-12
       191   703.40865          94907   361            362            29491          5938           58755          9.9486255e-12
       192   715.38842          95910   360            361            30154          6145           58890          1.0164064e-11
       193   727.47198          96852   360            360            30754          6365           59013          1.03542e-11  
       194   739.65331          97751   359            356            31343          6591           59102          1.0528406e-11
       195   751.90726          98642   358            356            31902          6821           59205          1.0696072e-11
       196   764.21057          99412   357            353            32407          7014           59281          1.0862108e-11
       197   776.58622         100242   357            351            32920          7247           59367          1.1007411e-11
       198   789.01622         101104   357            349            33449          7495           59454          1.11436e-11  
       199   801.51396         101866   356            345            33892          7748           59525          1.1278039e-11
       200   814.33178         102599   355            339            34276          8016           59613          1.1396194e-11
       201   826.97436         103369   353            335            34715          8285           59681          1.1493869e-11
       202   839.66421         104037   350            332            35068          8538           59749          1.1589712e-11
       203   852.46538         104724   347            330            35452          8778           59817          1.1675884e-11
       204   865.3318          105406   346            322            35846          9024           59868          1.1756001e-11
       205   878.24311         105995   341            320            36169          9249           59916          1.182058e-11 
       206   891.17415         106670   338            312            36547          9499           59974          1.1875912e-11
       207   904.1864          107280   333            306            36876          9750           60015          1.192071e-11 
       208   917.30159         107774   328            306            37088          9993           60059          1.1967222e-11
       209   930.47117         108449   322            300            37492          10227          60108          1.2013278e-11
       210   943.90566         108971   316            293            37707          10497          60158          1.2031378e-11
       211   957.12396         109550   312            286            37986          10761          60205          1.2068099e-11
       212   970.42205         109997   301            277            38137          11038          60244          1.2080076e-11
       213   983.77582         110563   294            271            38378          11329          60291          1.208805e-11 
       214   997.21095         111141   286            263            38616          11645          60331          1.2129789e-11
       215   1010.7932         111627   274            258            38752          11974          60369          1.2125627e-11
       216   1024.397          112150   267            251            38914          12304          60414          1.2151573e-11
       217   1038.0371         112539   256            240            38952          12635          60456          1.2143709e-11
       218   1051.752          112948   241            233            38994          12991          60489          1.2139191e-11
       219   1065.5399         113436   229            225            39114          13342          60526          1.2109094e-11
       220   1079.6329         113936   217            212            39245          13704          60558          1.2135466e-11
       221   1093.4802         114415   203            204            39383          14036          60589          1.215775e-11 
       222   1107.4122         114861   197            194            39492          14338          60640          1.2124769e-11
       223   1121.4297         115285   187            184            39583          14647          60684          1.2135878e-11
       224   1135.4772         115732   174            175            39695          14974          60714          1.2139372e-11
       225   1149.618          116200   164            165            39830          15296          60745          1.2145069e-11
       226   1163.7921         116651   155            159            39923          15626          60788          1.2127221e-11
       227   1177.9848         117027   149            150            39953          15951          60824          1.2112769e-11
       228   1192.3062         117459   143            142            40029          16286          60859          1.212288e-11 
       229   1206.6404         117901   135            133            40149          16593          60891          1.2121717e-11
       230   1221.3185         118294   129            129            40194          16921          60921          1.2106879e-11
       231   1235.7389         118703   119            122            40258          17244          60960          1.2091119e-11
       232   1250.2802         119108   110            115            40291          17595          60997          1.2078882e-11
       233   1264.7946         119513   100            108            40353          17911          61041          1.2083391e-11
       234   1279.4475         119903   96             104            40354          18266          61083          1.2068661e-11
       235   1294.1762         120307   87             98             40426          18582          61114          1.206153e-11 
       236   1308.9036         120763   79             93             40532          18916          61143          1.2061956e-11
       237   1323.75           121149   68             83             40565          19257          61176          1.2064732e-11
       238   1338.6727         121469   65             81             40543          19576          61204          1.2058107e-11
       239   1353.6322         121884   61             72             40626          19890          61235          1.2032958e-11
       240   1368.9041         122274   58             68             40696          20187          61265          1.2040325e-11
       241   1383.9558         122709   56             66             40765          20527          61295          1.2049366e-11
       242   1399.0517         122981   51             64             40647          20891          61328          1.2024212e-11
       243   1414.2236         123417   47             60             40708          21243          61359          1.2030575e-11
       244   1429.4964         123746   46             56             40668          21593          61383          1.1995506e-11
       245   1444.8194         124218   44             53             40765          21938          61418          1.2033983e-11
       246   1460.2513         124572   42             52             40749          22288          61441          1.2021328e-11
       247   1475.7277         124877   36             48             40697          22628          61468          1.2006729e-11
       248   1491.2379         125312   34             46             40700          23033          61499          1.2027843e-11
       249   1506.8243         125633   34             44             40611          23423          61521          1.2014502e-11
       250   1522.7815         126100   34             44             40653          23818          61551          1.2036913e-11
       251   1538.5296         126323   31             41             40470          24203          61578          1.1988475e-11
       252   1554.3036         126692   31             39             40354          24668          61600          1.200007e-11 
       253   1570.1141         127121   30             37             40267          25155          61632          1.2011569e-11
       254   1585.9845         127435   29             37             40111          25605          61653          1.2007464e-11
       255   1601.9212         127789   28             35             39982          26061          61683          1.1997586e-11
       256   1617.9207         128138   27             34             39798          26576          61703          1.2026478e-11
       257   1633.9992         128487   26             34             39633          27063          61731          1.2017188e-11
       258   1650.1398         128903   25             33             39579          27509          61757          1.2028945e-11
       259   1666.3021         129267   25             32             39425          28002          61783          1.2038744e-11
       260   1682.8446         129559   24             30             39233          28463          61809          1.2033303e-11
       261   1699.2214         129934   23             29             39059          28993          61830          1.2047832e-11
       262   1715.5987         130330   23             29             38927          29495          61856          1.2051493e-11
       263   1732.031          130665   22             29             38713          30022          61879          1.2067682e-11
       264   1748.486          131019   22             29             38570          30493          61905          1.207166e-11 
       265   1765.0871         131403   22             29             38452          30972          61928          1.2077704e-11
       266   1781.6707         131667   21             29             38212          31453          61952          1.2072103e-11
       267   1798.3259         132012   21             29             38106          31884          61972          1.2073229e-11
       268   1815.0868         132426   20             28             38038          32342          61998          1.2099093e-11
       269   1831.9104         132711   20             28             37838          32806          62019          1.2086906e-11
       270   1849.1007         133070   18             28             37710          33272          62042          1.2120945e-11
       271   1866.0817         133402   18             28             37544          33749          62063          1.2123746e-11
       272   1883.0601         133717   18             28             37404          34179          62088          1.2123031e-11
       273   1899.9926         134040   18             28             37285          34601          62108          1.2130947e-11
       274   1917.157          134448   18             28             37248          35020          62134          1.2138317e-11
       275   1934.1758         134733   18             28             37134          35399          62154          1.214815e-11 
       276   1951.2445         135065   18             28             37037          35800          62182          1.2174654e-11
       277   1968.582          135372   18             28             36920          36205          62201          1.2165636e-11
       278   1985.828          135785   18             28             36881          36631          62227          1.2189372e-11
       279   2003.1638         136150   18             27             36842          37018          62245          1.2214785e-11
       280   2020.8835         136507   18             27             36792          37398          62272          1.2221865e-11
       281   2038.2843         136870   18             27             36793          37739          62293          1.2240205e-11
       282   2055.7469         137132   18             27             36656          38114          62317          1.2263988e-11
       283   2073.4913         137411   18             26             36556          38472          62339          1.2242771e-11
       284   2091.0721         137778   18             26             36575          38801          62358          1.2260108e-11
       285   2108.9377         138112   18             26             36517          39167          62384          1.2240508e-11
       286   2126.6792         138476   18             26             36497          39531          62404          1.2280332e-11
       287   2144.5517         138790   18             25             36436          39882          62429          1.2289841e-11
       288   2162.4167         139111   18             25             36390          40231          62447          1.2300533e-11
       289   2180.3481         139386   18             25             36283          40588          62472          1.2290302e-11
       290   2198.6217         139786   18             25             36316          40933          62494          1.2316783e-11
       291   2216.8198         140069   17             25             36208          41301          62518          1.2309979e-11
       292   2234.9517         140386   17             25             36193          41609          62542          1.2325604e-11
       293   2253.1243         140728   17             25             36172          41953          62561          1.234852e-11 
       294   2271.3439         141103   17             25             36169          42305          62587          1.2387361e-11
       295   2289.6522         141453   17             25             36169          42637          62605          1.2371189e-11
       296   2308.0276         141828   17             25             36190          42966          62630          1.2377656e-11
       297   2326.4597         142092   17             25             36123          43276          62651          1.2385443e-11
       298   2344.8986         142324   17             25             35989          43617          62676          1.2404242e-11
       299   2363.5589         142703   17             24             36014          43955          62693          1.2427069e-11
       300   2382.5051         143081   17             24             36048          44270          62722          1.2437135e-11
       301   2401.2164         143411   17             24             36063          44569          62738          1.2426825e-11
       302   2419.9733         143668   17             24             35977          44886          62764          1.242153e-11 
       303   2438.7483         143968   17             24             35978          45162          62787          1.2430628e-11
       304   2457.596          144309   17             24             35985          45476          62807          1.247658e-11 
       305   2476.5073         144612   17             24             35962          45777          62832          1.2473247e-11
       306   2495.5133         144942   17             24             35981          46067          62853          1.2474401e-11
       307   2514.6058         145253   17             24             35938          46400          62874          1.2470763e-11
       308   2533.7253         145617   17             24             35945          46731          62900          1.2484151e-11
       309   2552.8424         145893   17             24             35931          47003          62918          1.2500841e-11
       310   2572.3902         146169   17             24             35882          47300          62946          1.2509272e-11
       311   2591.6469         146516   17             24             35908          47602          62965          1.2516553e-11
       312   2610.9233         146853   17             24             35885          47937          62990          1.2519215e-11
       313   2630.215          147239   17             24             35918          48268          63012          1.2545795e-11
       314   2649.6204         147513   17             24             35851          48587          63034          1.2572199e-11
       315   2669.0598         147744   17             24             35744          48901          63058          1.2560312e-11
       316   2688.5689         148128   17             24             35815          49195          63077          1.2573741e-11
       317   2708.204          148497   17             23             35831          49523          63103          1.2586083e-11
       318   2727.9041         148775   17             23             35776          49835          63124          1.2571983e-11
       319   2747.6151         149132   17             23             35812          50134          63146          1.2621819e-11
       320   2767.7575         149374   17             23             35725          50441          63168          1.2612124e-11
Loop time of 2767.76 on 16 procs for 320 steps with 149374 atoms

98.0% CPU use with 16 MPI tasks x 1 OpenMP threads

MPI task timing breakdown:
Section |  min time  |  avg time  |  max time  |%varavg| %total
---------------------------------------------------------------
Pair    | 778.17     | 863.35     | 1030.9     | 294.1 | 31.19
Neigh   | 469.08     | 569.99     | 790.63     | 506.2 | 20.59
Comm    | 326.23     | 409.84     | 500.07     | 288.6 | 14.81
Output  | 6.2356     | 6.236      | 6.2385     |   0.0 |  0.23
Modify  | 443.58     | 904.07     | 1150.9     | 821.7 | 32.66
Other   |            | 14.26      |            |       |  0.52

Nlocal:        9335.88 ave       12481 max        8002 min
Histogram: 8 4 0 0 0 0 0 0 0 4
Nghost:        7283.69 ave        9613 max        6102 min
Histogram: 4 5 3 0 0 0 0 0 2 2
Neighs:        92206.4 ave      104150 max       85568 min
Histogram: 5 1 4 2 0 0 0 1 2 1

Total # of neighbors = 1475302
Ave neighs/atom = 9.8765649
Neighbor list builds = 28025
Dangerous builds = 27705

Total wall time: 0:46:37
