LAMMPS (23 Jun 2022 - Update 4)
  using 1 OpenMP thread(s) per MPI task
package omp 0
using multi-threaded neighbor list subroutines
#-----------------------------------------------------------------------------#
#                NUFEB Simulation: Heterotrophic Biofilm Growth               #
#-----------------------------------------------------------------------------#


#-----------------------------System Settings---------------------------------#

units si                                    # using si units (m, s, kg)
atom_style      coccus                      # using nufeb coccus atom style
atom_modify     map array sort 10 0         # map array - find atoms using indices
		                            # sort every 10

boundary        pp pp ff                    # periodic boundaries in x and y
                                            # fixed boundary in z

newton          off                         # forces between local and ghost
                                            # atoms are computed in each
					     # processor without communication

processors      * * 1                       # processor grid

comm_modify     vel yes                     # communicate velocities for ghost atoms

read_data       atom_ch.in	             # read atom.in file which defines domain size
Reading data file ...
  orthogonal box = (0 0 0) to (6e-05 6e-05 6e-05)
  4 by 4 by 1 MPI processor grid
  reading atoms ...
  150 atoms
  read_data CPU = 0.024 seconds
                                            # and initial atoms


#--------------------Microbes and Functional Groups-------------------------#

group           CROSS1   type 1               # assign type 1,2 atoms to CROSS group
50 atoms in group CROSS1
group           CROSS2   type 2
50 atoms in group CROSS2
group		CHEATER  type 3
50 atoms in group CHEATER
group           dead     type 4
0 atoms in group dead
group		EPS	 type 5
0 atoms in group EPS

neighbor        5e-7 bin                   # setting neighbour skin distance and style

neigh_modify    check yes                  # rebuild neighbour list if any atom
                                           # had moved more than half the skin distance


#--------------------------Mesh Grid and Substrates--------------------------#

# defining grid sytle, substrate names, and grid size
grid_style      nufeb/chemostat 3 sub metab1 metab2 5e-6

# set diffusion boundary conditions and initial concentrations (liquid:kg/m3)
grid_modify     set sub      pp pp nd  1.8e-4
No /omp style for force computation currently active
grid_modify     set metab1   pp pp nd  1e-4
No /omp style for force computation currently active
grid_modify     set metab2   pp pp nd  1e-4
No /omp style for force computation currently active


#--------------------------Biological Processes-------------------------------#

# heterotrophs growth
fix growth_cross1 CROSS1 nufeb/growth/cross1 sub 3.5e-5 metab2 4e-3 metab1 growth 0.009 yield 0.6 decay 2.6e-6 metab1_exp 20 epsyield 0.12 epsdens 30

fix growth_cross2 CROSS2 nufeb/growth/cross2 sub 3.5e-5 metab1 4e-3 metab2 growth 0.009 yield 0.6 decay 2.6e-6 metab2_exp 20 epsyield 0.12 epsdens 30

fix growth_cheater CHEATER nufeb/growth/cheater sub 3.5e-5 metab1 1e-3 metab2 1e-3 growth 0.009 yield 0.6 decay 2.6e-6

# heterotrophs division, division diameter: 1.36e-6
fix div1 CROSS1 nufeb/division/coccus 1.36e-6 1952
fix div2 CROSS2 nufeb/division/coccus 1.36e-6 7502
fix div3 CHEATER nufeb/division/coccus 1.36e-6 16750

fix death1 CROSS1 nufeb/death/diameter dead 5.43e-7
fix death2 CROSS2 nufeb/death/diameter dead 5.43e-7
fix death3 CHEATER nufeb/death/diameter dead 5.43e-7

# EPS secretion from heterotrophs
fix eps1 CROSS1 nufeb/eps_secretion 5 EPS 1.1 30 29696
fix eps2 CROSS2 nufeb/eps_secretion 5 EPS 1.1 30 46340

#---------------------------Physical Processes--------------------------------#

pair_style  gran/hooke/history 1e-4 NULL 1e-5 NULL 0.0 0    # pairwise interaction
pair_coeff  * *                                             # between atoms

# pairwise interaction between z-wall and atoms
fix wall all wall/gran hooke/history 1e-3 NULL 1e-4 NULL 0 0 zplane 0.0 1e-04

fix vis all viscous 1e-5                                    # viscous damping force

fix grav all gravity 9.81 vector 0.0 0.0 -1.0

fix nve all nve/limit 1e-7                                  # NVE integration with
                                                            # maximum distance limit


#---------------------------Post-Physical Processes---------------------------#

fix coeff_sub all nufeb/diffusion_coeff sub ratio 0.8       # defining diffusion coeff in the biofilm
fix coeff_metab1 all nufeb/diffusion_coeff metab1 ratio 0.8    # region is 80% of the value in liquid
fix coeff_metab2 all nufeb/diffusion_coeff metab2 ratio 0.8

#---------------------------Chemical Processes---------------------------------#

fix diff_sub all nufeb/diffusion_reaction sub 1e-9        # diffusion reaction for updating
fix diff_metab1 all nufeb/diffusion_reaction metab1 4e-9     # distribusion of substrate concentration
fix diff_metab2 all nufeb/diffusion_reaction metab2 4e-9

#--------------------------Computations and Outputs----------------------------#

variable mass equal "mass(all)"                             # total mass
variable ncross1 equal "count(CROSS1)"                      # total # of CROSS1
variable ncross2 equal "count(CROSS2)"                      # total # of CROSS2
variable ncheater equal "count(CHEATER)"
variable ndead equal "count(dead)"
variable neps equal "count(EPS)"

shell mkdir vtk_EPS_ch                                            # dump vtk files to /vtk folder
dump du1 all vtk 10 vtk_EPS_ch/dump*.vtu id type diameter         # require build NUFEB with vtk option
dump du2 all grid/vtk 10 vtk_EPS_ch/dump_%_*.vti con rea den gro

#dump du3 all movie 10 movie.avi type diameter view 80 60    # dump video
#dump_modify du3 acolor 1 blue acolor 2 lightgrey framerate 10


                                                            # dump hdf5 files to /hdf5 folder
#shell mkdir hdf5                                           # require build NUFEB with hdf5 option
#dump du3 all nufeb/hdf5 10 dump.h5 id type x y z vx vy vz fx fy fz radius conc reac

thermo_style custom step cpu atoms v_ncross1 v_ncross2 v_ncheater v_ndead v_neps v_mass     # screen and log outputs
thermo 1
thermo_modify   lost ignore

#-----------------------------------Run----------------------------------------#

# issue run command, define timesteps for physical (pairdt) and chemical (diffdt) processes
run_style nufeb diffdt 1e-4 difftol 1e-6 pairdt 1e-2 pairtol 1 pairmax 1000 diffmax 5000

timestep 12000                                               # define biological timesteps (1000s)

run 320                                                    # growing biofilm for 900x1000s
Generated 0 of 6 mixed pair_coeff terms from geometric mixing rule
Last active /omp style is pair_style gran/hooke/history/omp
Neighbor list info ...
  update every 1 steps, delay 10 steps, check yes
  max neighbors/atom: 2000, page size: 100000
  master list distance cutoff = 2.49e-06
  ghost atom cutoff = 2.49e-06
  binsize = 1.245e-06, bins = 49 49 49
  1 neighbor lists, perpetual/occasional/extra = 1 0 0
  (1) pair gran/hooke/history/omp, perpetual
      attributes: half, newton off, size, history, omp
      pair build: half/size/bin/newtoff/omp
      stencil: full/bin/3d
      bin: standard
Per MPI rank memory allocation (min/avg/max) = 11.02 | 11.02 | 11.02 Mbytes
   Step          CPU          Atoms      v_ncross1      v_ncross2      v_ncheater      v_ndead         v_neps         v_mass    
         0   0                    150   50             50             50             0              0              1.3295396e-13
         1   0.37598484           432   90             85             86             0              171            1.7272611e-13
         2   0.75060521           797   120            126            136            0              415            1.9585986e-13
         3   1.0726159           1127   129            147            181            0              670            2.1530492e-13
         4   1.3855162           1433   136            153            198            0              946            2.3358423e-13
         5   1.6076516           1750   141            160            216            0              1233           2.5159135e-13
         6   1.7922041           2085   145            170            244            0              1526           2.6934827e-13
         7   1.9464335           2416   154            176            256            0              1830           2.8679568e-13
         8   2.1049903           2778   165            186            276            0              2151           3.0413172e-13
         9   2.2737716           3154   171            191            301            0              2491           3.2117313e-13
        10   10.247124           3539   180            204            321            0              2834           3.3787072e-13
        11   10.364047           3939   183            212            348            0              3196           3.5435509e-13
        12   10.484391           4313   186            218            364            0              3545           3.7021959e-13
        13   10.591067           4704   189            225            386            0              3904           3.8555077e-13
        14   10.670557           5088   192            227            402            0              4267           4.0021581e-13
        15   10.791425           5490   197            234            420            0              4639           4.1453193e-13
        16   10.907014           5885   198            238            439            0              5010           4.2885729e-13
        17   11.002463           6281   201            243            463            0              5374           4.4256912e-13
        18   11.103036           6676   207            247            479            0              5743           4.5585316e-13
        19   11.208898           7074   213            255            496            0              6110           4.6857002e-13
        20   14.678882           7470   218            259            512            0              6481           4.8133255e-13
        21   14.777147           7853   221            263            523            0              6846           4.9330106e-13
        22   14.857146           8262   227            266            544            0              7225           5.0498637e-13
        23   14.944979           8663   233            270            562            0              7598           5.16197e-13  
        24   15.027121           9047   236            271            575            0              7965           5.2697082e-13
        25   15.143275           9448   238            275            588            0              8347           5.3760435e-13
        26   15.245849           9839   244            279            602            0              8714           5.4760779e-13
        27   15.363842          10236   248            282            617            0              9089           5.5781494e-13
        28   15.484144          10656   252            288            633            0              9483           5.6769626e-13
        29   15.59571           11046   258            295            640            0              9853           5.7694949e-13
        30   15.766883          11447   260            300            661            0              10226          5.8613781e-13
        31   15.900895          11858   263            303            676            0              10616          5.9528869e-13
        32   16.055581          12245   263            305            688            0              10989          6.0413641e-13
        33   16.245783          12635   267            308            704            0              11356          6.1274301e-13
        34   16.406679          13034   269            310            717            0              11738          6.2126214e-13
        35   16.704567          13427   272            313            735            0              12107          6.2964934e-13
        36   16.978566          13821   273            315            746            0              12487          6.3776376e-13
        37   17.207631          14218   278            320            756            0              12864          6.4575678e-13
        38   17.560862          14610   280            324            764            0              13242          6.5370736e-13
        39   18.054146          15032   281            324            785            0              13642          6.6162328e-13
        40   18.491143          15394   282            326            797            0              13989          6.6912042e-13
        41   18.891156          15819   285            326            810            0              14398          6.7655643e-13
        42   19.291791          16198   287            328            824            0              14759          6.8327258e-13
        43   19.979687          16623   290            332            838            0              15163          6.9060564e-13
        44   20.734548          17005   292            333            853            0              15527          6.9747626e-13
        45   21.728994          17422   293            339            861            0              15929          7.0454555e-13
        46   22.488027          17800   295            340            875            0              16290          7.1168683e-13
        47   23.496743          18209   295            343            893            0              16678          7.1886196e-13
        48   24.538633          18604   296            343            909            0              17056          7.2578541e-13
        49   25.591401          18987   301            344            922            0              17420          7.3261384e-13
        50   26.744572          19417   304            348            940            0              17825          7.3964961e-13
        51   27.839838          19796   308            349            950            0              18189          7.4663682e-13
        52   28.968938          20205   309            350            965            0              18581          7.5349303e-13
        53   30.137337          20599   309            351            985            0              18954          7.6019651e-13
        54   31.342561          21014   312            354            999            0              19349          7.6704556e-13
        55   32.642824          21403   314            354            1013           0              19722          7.7419803e-13
        56   33.927178          21827   315            355            1030           0              20127          7.8241718e-13
        57   35.224752          22221   315            355            1059           1              20491          7.9058038e-13
        58   36.578447          22627   318            357            1073           1              20878          7.9918994e-13
        59   37.938483          23035   319            359            1100           1              21256          8.082905e-13 
        60   39.409595          23441   319            359            1125           1              21637          8.1749214e-13
        61   40.794538          23856   321            359            1147           1              22028          8.2675831e-13
        62   42.182112          24258   324            361            1180           3              22390          8.3588304e-13
        63   43.597104          24666   327            361            1197           5              22776          8.4504038e-13
        64   45.047118          25058   328            362            1220           7              23141          8.5412641e-13
        65   46.506386          25471   328            364            1244           9              23526          8.6322727e-13
        66   48.008635          25856   330            364            1267           10             23885          8.7221486e-13
        67   49.583171          26287   331            366            1295           12             24283          8.8149586e-13
        68   51.177414          26668   334            366            1313           15             24640          8.9089401e-13
        69   52.830202          27095   335            366            1343           18             25033          9.0092205e-13
        70   54.619713          27477   335            367            1371           20             25384          9.111635e-13 
        71   56.366894          27911   336            370            1407           24             25774          9.2248989e-13
        72   58.146033          28311   338            372            1432           28             26141          9.3407442e-13
        73   59.943337          28726   340            372            1469           32             26513          9.462605e-13 
        74   61.761551          29128   341            373            1494           42             26878          9.5862533e-13
        75   63.591404          29547   342            374            1534           45             27252          9.7102393e-13
        76   65.446931          29952   344            375            1559           51             27623          9.8345251e-13
        77   67.323897          30375   345            376            1597           58             27999          9.9567821e-13
        78   69.218741          30773   345            379            1621           68             28360          1.007825e-12 
        79   71.167266          31193   345            379            1655           72             28742          1.0199236e-12
        80   73.277374          31599   345            380            1679           84             29111          1.0319383e-12
        81   75.346559          32011   346            380            1719           93             29473          1.044523e-12 
        82   77.484669          32417   348            382            1749           104            29834          1.0572428e-12
        83   79.711167          32836   350            383            1786           118            30199          1.0702843e-12
        84   81.995694          33259   351            386            1823           128            30571          1.0843407e-12
        85   84.283497          33666   351            386            1862           140            30927          1.0997305e-12
        86   86.64443           34069   351            386            1908           148            31276          1.1155217e-12
        87   88.998532          34489   351            386            1942           156            31654          1.1322822e-12
        88   91.412583          34903   351            386            2003           163            32000          1.1493982e-12
        89   93.855828          35322   352            386            2049           172            32363          1.1672375e-12
        90   96.425987          35727   353            386            2107           178            32703          1.1850578e-12
        91   98.956733          36153   354            386            2160           189            33064          1.2031787e-12
        92   101.51878          36543   355            386            2218           199            33385          1.2211314e-12
        93   104.14427          36979   356            387            2278           203            33755          1.2395829e-12
        94   106.8785           37383   356            387            2351           204            34085          1.2585349e-12
        95   109.65124          37817   356            389            2425           206            34441          1.2779797e-12
        96   112.48219          38215   356            390            2481           217            34771          1.298325e-12 
        97   115.36249          38628   356            391            2544           225            35112          1.319207e-12 
        98   118.30265          39062   356            391            2625           232            35458          1.3415494e-12
        99   121.30169          39474   356            391            2701           239            35787          1.3646636e-12
       100   124.48296          39888   356            391            2787           243            36111          1.3882967e-12
       101   127.59215          40337   356            391            2881           249            36460          1.4124712e-12
       102   130.73075          40707   356            392            2948           260            36751          1.4364041e-12
       103   133.89579          41152   356            392            3042           266            37096          1.460597e-12 
       104   137.15252          41544   357            392            3127           272            37396          1.48427e-12  
       105   140.43028          41961   357            393            3201           282            37728          1.50811e-12  
       106   143.71634          42380   357            393            3298           289            38043          1.531554e-12 
       107   147.16318          42780   357            393            3382           294            38354          1.5544686e-12
       108   150.68074          43191   357            393            3464           301            38676          1.5780027e-12
       109   154.30133          43600   357            393            3540           313            38997          1.6018512e-12
       110   158.08725          44017   357            393            3644           317            39306          1.6269934e-12
       111   161.8506           44435   357            393            3738           329            39618          1.6532314e-12
       112   165.64621          44832   357            393            3834           338            39910          1.680586e-12 
       113   169.51322          45254   357            393            3930           347            40227          1.7085442e-12
       114   173.41743          45658   357            393            4033           354            40521          1.7368609e-12
       115   177.3827           46075   357            393            4130           367            40828          1.7653069e-12
       116   181.4212           46475   357            394            4241           377            41106          1.7938271e-12
       117   185.5072           46910   357            394            4344           388            41427          1.8219794e-12
       118   189.65423          47303   357            394            4426           405            41721          1.849616e-12 
       119   193.91085          47715   357            394            4535           416            42013          1.8769608e-12
       120   198.31222          48112   357            394            4622           432            42307          1.9038921e-12
       121   202.72327          48509   357            394            4711           457            42590          1.9304215e-12
       122   207.22142          48943   357            394            4807           479            42906          1.9579747e-12
       123   211.83921          49367   357            394            4929           498            43189          1.9870598e-12
       124   216.48793          49775   357            394            5027           518            43479          2.0170689e-12
       125   221.19392          50179   357            394            5127           538            43763          2.0477598e-12
       126   225.99644          50598   357            395            5237           558            44051          2.0795524e-12
       127   230.9047           51010   357            395            5352           576            44330          2.1117638e-12
       128   235.93486          51436   357            395            5461           599            44624          2.1438045e-12
       129   241.04789          51860   357            395            5577           629            44902          2.1762013e-12
       130   246.37908          52276   357            396            5665           668            45190          2.2084395e-12
       131   251.67389          52718   358            396            5786           701            45477          2.2403814e-12
       132   257.07837          53116   359            396            5870           746            45745          2.2722676e-12
       133   262.59403          53567   359            396            6010           769            46033          2.3044736e-12
       134   268.17941          53987   359            397            6120           800            46311          2.3369814e-12
       135   273.82545          54408   360            397            6228           842            46581          2.3702873e-12
       136   279.60371          54815   360            397            6305           886            46867          2.404349e-12 
       137   285.48023          55238   360            398            6421           940            47119          2.4404305e-12
       138   291.48088          55693   361            398            6532           989            47413          2.4781139e-12
       139   297.60697          56104   361            398            6627           1041           47677          2.5169196e-12
       140   303.99862          56551   361            398            6746           1086           47960          2.5567009e-12
       141   310.32208          57013   361            399            6877           1137           48239          2.5974517e-12
       142   316.75959          57451   361            399            6987           1184           48520          2.6385705e-12
       143   323.30407          57903   362            399            7112           1246           48784          2.6794135e-12
       144   329.98638          58365   363            399            7247           1300           49056          2.7205254e-12
       145   336.75903          58820   363            399            7374           1351           49333          2.7620678e-12
       146   343.66753          59272   363            399            7507           1417           49586          2.8049694e-12
       147   350.67792          59733   362            399            7642           1476           49854          2.8487316e-12
       148   357.82757          60210   362            399            7782           1532           50135          2.8951706e-12
       149   365.0811           60668   362            399            7927           1599           50381          2.9440564e-12
       150   372.59078          61145   362            399            8075           1673           50636          2.9955368e-12
       151   380.07967          61624   362            399            8197           1761           50905          3.0491537e-12
       152   387.75078          62132   363            399            8393           1812           51165          3.1042682e-12
       153   395.49281          62591   365            399            8540           1880           51407          3.160284e-12 
       154   403.36463          63113   365            399            8730           1937           51682          3.215902e-12 
       155   411.395            63613   365            399            8913           1979           51957          3.2719027e-12
       156   419.49843          64089   366            399            9100           2038           52186          3.3275682e-12
       157   427.75274          64605   367            399            9291           2099           52449          3.3835915e-12
       158   436.1217           65121   367            400            9497           2145           52712          3.443578e-12 
       159   444.6523           65646   368            400            9705           2199           52974          3.506969e-12 
       160   453.4908           66157   368            400            9922           2244           53223          3.573804e-12 
       161   462.22802          66690   367            400            10149          2303           53471          3.6464166e-12
       162   471.14523          67259   366            399            10392          2352           53750          3.7227421e-12
       163   480.17824          67831   367            399            10655          2405           54005          3.8027702e-12
       164   489.33482          68378   367            399            10916          2458           54238          3.8845018e-12
       165   498.63999          68994   368            399            11189          2510           54528          3.9693853e-12
       166   508.10297          69573   366            399            11472          2571           54765          4.0571588e-12
       167   517.69709          70173   364            400            11771          2632           55006          4.1504082e-12
       168   527.48898          70816   364            400            12085          2684           55283          4.2524108e-12
       169   537.51778          71460   362            400            12394          2764           55540          4.3658523e-12
       170   547.92608          72167   361            400            12808          2829           55769          4.4919747e-12
       171   558.35273          72896   361            400            13205          2895           56035          4.6316948e-12
       172   568.9779           73648   361            400            13622          2966           56299          4.7803069e-12
       173   579.81407          74412   360            400            14078          3042           56532          4.9352326e-12
       174   591.00151          75223   360            400            14575          3107           56781          5.0951658e-12
       175   602.42131          76005   360            400            15028          3184           57033          5.2560315e-12
       176   614.06232          76813   360            398            15517          3250           57288          5.4136882e-12
       177   625.90605          77637   360            398            16044          3309           57526          5.5768086e-12
       178   637.92769          78374   358            397            16475          3385           57759          5.7155204e-12
       179   650.09456          79189   357            397            16960          3460           58015          5.8687916e-12
       180   662.60327          79940   356            397            17413          3536           58238          6.0143946e-12
       181   675.16598          80769   354            397            17941          3618           58459          6.173144e-12 
       182   687.8132           81594   352            395            18436          3709           58702          6.3330943e-12
       183   700.53751          82522   351            395            19043          3801           58932          6.5123277e-12
       184   713.39366          83365   350            395            19576          3890           59154          6.6824575e-12
       185   726.3829           84197   349            394            20100          3981           59373          6.8520856e-12
       186   739.51118          85057   349            394            20639          4076           59599          7.0091091e-12
       187   752.71429          85966   347            393            21218          4183           59825          7.1707932e-12
       188   766.00916          86843   347            392            21817          4274           60013          7.3534123e-12
       189   779.33499          87758   346            392            22373          4412           60235          7.5284118e-12
       190   792.91891          88677   345            391            22974          4525           60442          7.7207744e-12
       191   806.38951          89548   345            391            23505          4656           60651          7.9049813e-12
       192   819.91947          90488   345            391            24145          4782           60825          8.0886431e-12
       193   833.48877          91408   345            389            24735          4931           61008          8.274992e-12 
       194   847.14358          92348   344            389            25339          5066           61210          8.4648897e-12
       195   860.85306          93320   342            389            25978          5228           61383          8.6666671e-12
       196   874.63943          94237   341            389            26542          5400           61565          8.8588387e-12
       197   888.52518          95176   340            389            27160          5573           61714          9.0431264e-12
       198   902.55556          96096   337            388            27738          5771           61862          9.2441232e-12
       199   916.63968          97090   336            384            28381          5957           62032          9.4452198e-12
       200   931.02539          97996   335            383            28929          6170           62179          9.6334095e-12
       201   945.18703          98902   332            383            29515          6364           62308          9.8283791e-12
       202   959.4187           99846   331            380            30113          6579           62443          1.0014548e-11
       203   973.72183         100799   329            377            30746          6792           62555          1.0200447e-11
       204   988.1261          101709   325            375            31337          7004           62668          1.0376689e-11
       205   1002.6187         102608   324            372            31900          7228           62784          1.0541246e-11
       206   1017.213          103508   321            368            32473          7466           62880          1.0713063e-11
       207   1031.8241         104303   317            365            32945          7694           62982          1.0873133e-11
       208   1046.483          105112   313            362            33432          7951           63054          1.1019437e-11
       209   1061.2325         105992   307            357            33994          8207           63127          1.1175502e-11
       210   1076.2494         106816   303            349            34481          8477           63206          1.1300485e-11
       211   1091.1578         107637   302            344            34960          8749           63282          1.1438896e-11
       212   1106.0849         108363   296            340            35376          9011           63340          1.1571697e-11
       213   1121.0703         109095   292            335            35774          9307           63387          1.1660883e-11
       214   1136.1604         109764   287            329            36092          9620           63436          1.1754139e-11
       215   1151.2776         110420   280            322            36356          9973           63489          1.1828949e-11
       216   1166.467          111094   272            316            36677          10288          63541          1.189069e-11 
       217   1181.7279         111687   269            309            36899          10606          63604          1.1939584e-11
       218   1197.0498         112294   259            303            37126          10962          63644          1.199453e-11 
       219   1212.4885         112877   252            291            37389          11253          63692          1.2027567e-11
       220   1228.277          113489   243            286            37653          11574          63733          1.2098992e-11
       221   1243.8951         113970   237            276            37825          11873          63759          1.2124606e-11
       222   1259.5851         114557   224            271            38071          12196          63795          1.2152925e-11
       223   1275.3395         115136   216            259            38324          12509          63828          1.2194812e-11
       224   1291.1507         115645   204            246            38515          12818          63862          1.2215393e-11
       225   1307.0014         116111   197            235            38659          13129          63891          1.2228413e-11
       226   1322.9076         116648   190            224            38910          13406          63918          1.2236048e-11
       227   1338.9846         117095   180            208            39033          13723          63951          1.2224352e-11
       228   1355.0143         117558   175            200            39177          14018          63988          1.222098e-11 
       229   1371.0858         117980   166            187            39228          14379          64020          1.2250796e-11
       230   1387.5622         118447   159            173            39350          14712          64053          1.2240756e-11
       231   1403.7422         118903   156            165            39465          15043          64074          1.2223852e-11
       232   1419.9424         119349   143            155            39550          15395          64106          1.221036e-11 
       233   1436.1769         119793   133            144            39638          15739          64139          1.2211541e-11
       234   1452.4731         120153   130            135            39660          16061          64167          1.220634e-11 
       235   1468.8081         120615   123            131            39783          16375          64203          1.2205282e-11
       236   1485.2709         121019   118            126            39845          16701          64229          1.2197886e-11
       237   1501.7798         121529   105            123            39997          17041          64263          1.220233e-11 
       238   1518.3689         121932   100            111            40064          17362          64295          1.2198672e-11
       239   1534.9648         122350   96             103            40154          17672          64325          1.2196373e-11
       240   1551.9326         122718   91             96             40204          17975          64352          1.2174682e-11
       241   1568.7445         123174   89             94             40300          18315          64376          1.2183845e-11
       242   1585.5828         123528   84             92             40303          18642          64407          1.2148147e-11
       243   1602.5213         123954   79             86             40392          18954          64443          1.2150475e-11
       244   1619.4884         124408   76             82             40516          19259          64475          1.2177322e-11
       245   1636.5887         124744   73             77             40511          19583          64500          1.2147412e-11
       246   1653.7197         125137   69             76             40552          19908          64532          1.2147723e-11
       247   1670.8907         125494   64             72             40549          20247          64562          1.2102985e-11
       248   1688.1317         125905   62             65             40602          20586          64590          1.2134249e-11
       249   1705.4511         126283   59             64             40628          20918          64614          1.2128494e-11
       250   1723.1195         126683   58             63             40671          21255          64636          1.2122038e-11
       251   1740.6195         127094   56             56             40677          21635          64670          1.2103984e-11
       252   1758.0656         127403   56             54             40608          21976          64709          1.20912e-11  
       253   1775.5936         127861   55             52             40709          22316          64729          1.209793e-11 
       254   1793.1864         128208   52             50             40694          22663          64749          1.2101456e-11
       255   1810.8091         128555   51             50             40620          23050          64784          1.2096684e-11
       256   1828.5169         128989   49             49             40679          23397          64815          1.2100978e-11
       257   1846.3138         129409   49             47             40713          23756          64844          1.2100848e-11
       258   1864.1789         129773   49             45             40675          24141          64863          1.2104793e-11
       259   1882.137          130071   49             43             40546          24534          64899          1.2110346e-11
       260   1900.4974         130426   48             41             40483          24929          64925          1.2105071e-11
       261   1918.6946         130893   46             39             40508          25351          64949          1.2123916e-11
       262   1936.8502         131266   44             38             40421          25784          64979          1.2110687e-11
       263   1955.138          131619   43             37             40340          26190          65009          1.2109675e-11
       264   1973.5021         131978   42             34             40257          26613          65032          1.2117593e-11
       265   1991.9587         132372   41             33             40178          27064          65056          1.2133913e-11
       266   2010.6094         132730   40             33             40039          27531          65087          1.2110405e-11
       267   2029.2493         133071   39             33             39905          27986          65108          1.21273e-11  
       268   2047.8568         133454   38             31             39766          28482          65137          1.2126566e-11
       269   2066.6464         133814   38             31             39571          29009          65165          1.2135234e-11
       270   2085.8072         134211   37             30             39456          29496          65192          1.2141015e-11
       271   2104.7595         134554   36             30             39233          30041          65214          1.2153338e-11
       272   2123.7795         134876   35             28             39026          30545          65242          1.2138881e-11
       273   2142.7577         135199   34             27             38846          31026          65266          1.2145077e-11
       274   2161.7403         135588   34             27             38752          31482          65293          1.2124153e-11
       275   2180.7488         135883   34             26             38559          31945          65319          1.2128814e-11
       276   2199.9057         136236   34             26             38415          32417          65344          1.2154616e-11
       277   2219.0717         136598   34             26             38316          32852          65370          1.2166322e-11
       278   2238.2689         136914   33             26             38165          33297          65393          1.2163684e-11
       279   2257.5951         137287   31             26             38010          33802          65418          1.21747e-11  
       280   2277.2253         137665   31             26             37912          34256          65440          1.2176474e-11
       281   2296.5859         137989   31             26             37752          34710          65470          1.2198702e-11
       282   2316.0931         138297   30             24             37590          35160          65493          1.2203726e-11
       283   2335.6537         138615   29             23             37443          35604          65516          1.2202601e-11
       284   2355.2272         138982   28             23             37360          36032          65539          1.2194563e-11
       285   2374.8941         139291   28             22             37215          36463          65563          1.2223639e-11
       286   2394.4878         139708   28             22             37193          36877          65588          1.2248295e-11
       287   2414.217          140044   28             21             37107          37276          65612          1.2240208e-11
       288   2434.0458         140316   27             21             36962          37669          65637          1.2238538e-11
       289   2453.87           140662   27             21             36898          38059          65657          1.2242639e-11
       290   2474.0988         140932   27             20             36760          38439          65686          1.2251898e-11
       291   2493.9751         141319   27             20             36766          38802          65704          1.22655e-11  
       292   2513.9834         141685   27             20             36720          39186          65732          1.2283064e-11
       293   2534.0817         141913   27             20             36552          39564          65750          1.2284889e-11
       294   2554.0794         142300   27             20             36542          39929          65782          1.2297417e-11
       295   2574.0623         142623   27             20             36526          40254          65796          1.2304491e-11
       296   2594.2589         142911   26             20             36425          40613          65827          1.23087e-11  
       297   2614.3595         143274   26             20             36411          40971          65846          1.2328278e-11
       298   2634.5344         143611   26             20             36378          41316          65871          1.2334409e-11
       299   2654.6977         143962   26             20             36383          41641          65892          1.2353451e-11
       300   2675.2583         144255   26             20             36306          41987          65916          1.2360418e-11
       301   2695.6627         144542   26             20             36251          42304          65941          1.2356166e-11
       302   2716.0816         144877   26             20             36220          42650          65961          1.2366933e-11
       303   2736.6679         145202   25             20             36174          42997          65986          1.2387965e-11
       304   2757.2629         145672   25             20             36300          43321          66006          1.242238e-11 
       305   2777.9446         145893   25             20             36174          43641          66033          1.2412445e-11
       306   2798.9453         146176   25             20             36094          43984          66053          1.2404397e-11
       307   2819.773          146567   25             20             36128          44313          66081          1.243988e-11 
       308   2840.6826         146899   25             20             36112          44642          66100          1.2459086e-11
       309   2861.7063         147250   25             20             36101          44977          66127          1.2467352e-11
       310   2883.0715         147544   25             20             36040          45312          66147          1.2472415e-11
       311   2904.0518         147905   25             20             36040          45646          66174          1.2497291e-11
       312   2925.1161         148222   24             20             36025          45959          66194          1.2519048e-11
       313   2946.3245         148559   23             20             36032          46267          66217          1.2533456e-11
       314   2967.4239         148903   23             20             36053          46566          66241          1.253812e-11 
       315   2988.5428         149186   23             20             35983          46899          66261          1.2532185e-11
       316   3009.8018         149484   23             20             35906          47246          66289          1.2539125e-11
       317   3031.0568         149705   23             20             35817          47542          66303          1.2534676e-11
       318   3052.5268         150056   23             20             35830          47849          66334          1.252538e-11 
       319   3073.9842         150346   23             20             35818          48133          66352          1.2548363e-11
       320   3095.9817         150692   23             20             35811          48461          66377          1.2535275e-11
Loop time of 3095.98 on 16 procs for 320 steps with 150692 atoms

98.1% CPU use with 16 MPI tasks x 1 OpenMP threads

MPI task timing breakdown:
Section |  min time  |  avg time  |  max time  |%varavg| %total
---------------------------------------------------------------
Pair    | 741.36     | 845.04     | 1062.5     | 287.3 | 27.29
Neigh   | 443.01     | 574.7      | 936.73     | 560.3 | 18.56
Comm    | 365.51     | 465.3      | 586.96     | 322.1 | 15.03
Output  | 17.058     | 17.058     | 17.058     |   0.0 |  0.55
Modify  | 556.11     | 1178.5     | 1513       | 754.8 | 38.07
Other   |            | 15.39      |            |       |  0.50

Nlocal:        9418.25 ave       14927 max        7798 min
Histogram: 7 4 1 2 0 0 0 0 1 1
Nghost:        7270.88 ave        9810 max        6101 min
Histogram: 6 1 4 1 0 0 2 0 0 2
Neighs:        91676.9 ave      108354 max       81380 min
Histogram: 3 1 3 2 3 2 0 0 1 1

Total # of neighbors = 1466831
Ave neighs/atom = 9.7339673
Neighbor list builds = 28082
Dangerous builds = 27762

Total wall time: 0:52:15
