LAMMPS (23 Jun 2022 - Update 4)
  using 1 OpenMP thread(s) per MPI task
package omp 0
using multi-threaded neighbor list subroutines
#-----------------------------------------------------------------------------#
#                NUFEB Simulation: Heterotrophic Biofilm Growth               #
#-----------------------------------------------------------------------------#


#-----------------------------System Settings---------------------------------#

units si                                    # using si units (m, s, kg)
atom_style      coccus                      # using nufeb coccus atom style
atom_modify     map array sort 10 0         # map array - find atoms using indices
		                            # sort every 10

boundary        pp pp ff                    # periodic boundaries in x and y
                                            # fixed boundary in z

newton          off                         # forces between local and ghost
                                            # atoms are computed in each
					     # processor without communication

processors      * * 1                       # processor grid

comm_modify     vel yes                     # communicate velocities for ghost atoms

read_data       atom_ch.in	             # read atom.in file which defines domain size
Reading data file ...
  orthogonal box = (0 0 0) to (6e-05 6e-05 6e-05)
  4 by 4 by 1 MPI processor grid
  reading atoms ...
  150 atoms
  read_data CPU = 0.012 seconds
                                            # and initial atoms


#--------------------Microbes and Functional Groups-------------------------#

group           CROSS1   type 1               # assign type 1,2 atoms to CROSS group
50 atoms in group CROSS1
group           CROSS2   type 2
50 atoms in group CROSS2
group		CHEATER  type 3
50 atoms in group CHEATER
group           dead     type 4
0 atoms in group dead
group		EPS	 type 5
0 atoms in group EPS

neighbor        5e-7 bin                   # setting neighbour skin distance and style

neigh_modify    check yes                  # rebuild neighbour list if any atom
                                           # had moved more than half the skin distance


#--------------------------Mesh Grid and Substrates--------------------------#

# defining grid sytle, substrate names, and grid size
grid_style      nufeb/chemostat 3 sub metab1 metab2 5e-6

# set diffusion boundary conditions and initial concentrations (liquid:kg/m3)
grid_modify     set sub      pp pp nd  1.8e-4
No /omp style for force computation currently active
grid_modify     set metab1   pp pp nd  1e-4
No /omp style for force computation currently active
grid_modify     set metab2   pp pp nd  1e-4
No /omp style for force computation currently active


#--------------------------Biological Processes-------------------------------#

# heterotrophs growth
fix growth_cross1 CROSS1 nufeb/growth/cross1 sub 3.5e-5 metab2 4e-3 metab1 growth 0.009 yield 0.6 decay 2.6e-6 metab1_exp 20 epsyield 0.12 epsdens 30

fix growth_cross2 CROSS2 nufeb/growth/cross2 sub 3.5e-5 metab1 4e-3 metab2 growth 0.009 yield 0.6 decay 2.6e-6 metab2_exp 20 epsyield 0.12 epsdens 30

fix growth_cheater CHEATER nufeb/growth/cheater sub 3.5e-5 metab1 1e-3 metab2 1e-3 growth 0.009 yield 0.6 decay 2.6e-6

# heterotrophs division, division diameter: 1.36e-6
fix div1 CROSS1 nufeb/division/coccus 1.36e-6 1703
fix div2 CROSS2 nufeb/division/coccus 1.36e-6 6506
fix div3 CHEATER nufeb/division/coccus 1.36e-6 14509

fix death1 CROSS1 nufeb/death/diameter dead 5.43e-7
fix death2 CROSS2 nufeb/death/diameter dead 5.43e-7
fix death3 CHEATER nufeb/death/diameter dead 5.43e-7

# EPS secretion from heterotrophs
fix eps1 CROSS1 nufeb/eps_secretion 5 EPS 1.1 30 25712
fix eps2 CROSS2 nufeb/eps_secretion 5 EPS 1.1 30 40115

#---------------------------Physical Processes--------------------------------#

pair_style  gran/hooke/history 1e-4 NULL 1e-5 NULL 0.0 0    # pairwise interaction
pair_coeff  * *                                             # between atoms

# pairwise interaction between z-wall and atoms
fix wall all wall/gran hooke/history 1e-3 NULL 1e-4 NULL 0 0 zplane 0.0 1e-04

fix vis all viscous 1e-5                                    # viscous damping force

fix grav all gravity 9.81 vector 0.0 0.0 -1.0

fix nve all nve/limit 1e-7                                  # NVE integration with
                                                            # maximum distance limit


#---------------------------Post-Physical Processes---------------------------#

fix coeff_sub all nufeb/diffusion_coeff sub ratio 0.8       # defining diffusion coeff in the biofilm
fix coeff_metab1 all nufeb/diffusion_coeff metab1 ratio 0.8    # region is 80% of the value in liquid
fix coeff_metab2 all nufeb/diffusion_coeff metab2 ratio 0.8

#---------------------------Chemical Processes---------------------------------#

fix diff_sub all nufeb/diffusion_reaction sub 1e-9        # diffusion reaction for updating
fix diff_metab1 all nufeb/diffusion_reaction metab1 4e-9     # distribusion of substrate concentration
fix diff_metab2 all nufeb/diffusion_reaction metab2 4e-9

#--------------------------Computations and Outputs----------------------------#

variable mass equal "mass(all)"                             # total mass
variable ncross1 equal "count(CROSS1)"                      # total # of CROSS1
variable ncross2 equal "count(CROSS2)"                      # total # of CROSS2
variable ncheater equal "count(CHEATER)"
variable ndead equal "count(dead)"
variable neps equal "count(EPS)"

shell mkdir vtk_EPS_ch                                            # dump vtk files to /vtk folder
dump du1 all vtk 10 vtk_EPS_ch/dump*.vtu id type diameter         # require build NUFEB with vtk option
dump du2 all grid/vtk 10 vtk_EPS_ch/dump_%_*.vti con rea den gro

#dump du3 all movie 10 movie.avi type diameter view 80 60    # dump video
#dump_modify du3 acolor 1 blue acolor 2 lightgrey framerate 10


                                                            # dump hdf5 files to /hdf5 folder
#shell mkdir hdf5                                           # require build NUFEB with hdf5 option
#dump du3 all nufeb/hdf5 10 dump.h5 id type x y z vx vy vz fx fy fz radius conc reac

thermo_style custom step cpu atoms v_ncross1 v_ncross2 v_ncheater v_ndead v_neps v_mass     # screen and log outputs
thermo 1
thermo_modify   lost ignore

#-----------------------------------Run----------------------------------------#

# issue run command, define timesteps for physical (pairdt) and chemical (diffdt) processes
run_style nufeb diffdt 1e-4 difftol 1e-6 pairdt 1e-2 pairtol 1 pairmax 1000 diffmax 5000

timestep 12000                                               # define biological timesteps (1000s)

run 320                                                    # growing biofilm for 900x1000s
Generated 0 of 6 mixed pair_coeff terms from geometric mixing rule
Last active /omp style is pair_style gran/hooke/history/omp
Neighbor list info ...
  update every 1 steps, delay 10 steps, check yes
  max neighbors/atom: 2000, page size: 100000
  master list distance cutoff = 2.49e-06
  ghost atom cutoff = 2.49e-06
  binsize = 1.245e-06, bins = 49 49 49
  1 neighbor lists, perpetual/occasional/extra = 1 0 0
  (1) pair gran/hooke/history/omp, perpetual
      attributes: half, newton off, size, history, omp
      pair build: half/size/bin/newtoff/omp
      stencil: full/bin/3d
      bin: standard
Per MPI rank memory allocation (min/avg/max) = 11.02 | 11.02 | 11.02 Mbytes
   Step          CPU          Atoms      v_ncross1      v_ncross2      v_ncheater      v_ndead         v_neps         v_mass    
         0   0                    150   50             50             50             0              0              1.3295396e-13
         1   0.3996318            432   90             85             86             0              171            1.7264429e-13
         2   0.78595564           793   118            124            138            0              413            1.9544576e-13
         3   1.1121797           1135   129            146            183            0              677            2.1451335e-13
         4   1.4236434           1442   136            156            204            0              946            2.3226999e-13
         5   1.6378863           1777   146            164            221            0              1246           2.4966442e-13
         6   1.8076432           2107   151            172            235            0              1549           2.6685414e-13
         7   1.9591359           2453   157            179            257            0              1860           2.8390528e-13
         8   2.1651332           2798   165            182            275            0              2176           3.0080065e-13
         9   2.3094876           3157   173            190            296            0              2498           3.1740607e-13
        10   6.0292025           3548   180            200            316            0              2852           3.3322195e-13
        11   6.1740523           3911   182            207            329            0              3193           3.4864162e-13
        12   6.2931381           4273   188            209            343            0              3533           3.6356535e-13
        13   6.3964501           4658   193            216            358            0              3891           3.7778548e-13
        14   6.5013231           5042   197            222            380            0              4243           3.9165602e-13
        15   6.6109261           5434   201            230            396            0              4607           4.0527962e-13
        16   6.7037562           5815   202            239            410            0              4964           4.1849783e-13
        17   6.7764897           6227   207            245            426            0              5349           4.3158443e-13
        18   6.8552363           6616   213            250            445            0              5708           4.4387898e-13
        19   6.9771442           7028   219            259            460            0              6090           4.5594348e-13
        20   21.311842           7421   223            261            475            0              6462           4.6746418e-13
        21   21.402398           7824   227            263            487            0              6847           4.7858895e-13
        22   21.488384           8243   230            269            504            0              7240           4.8949842e-13
        23   21.57217            8627   235            278            518            0              7596           4.9975596e-13
        24   21.666158           9030   239            283            528            0              7980           5.0984286e-13
        25   21.758474           9455   243            286            546            0              8380           5.1985676e-13
        26   21.869056           9839   246            289            557            0              8747           5.2951823e-13
        27   21.968506          10244   253            292            570            0              9129           5.388512e-13 
        28   22.072511          10647   255            295            581            0              9516           5.47745e-13  
        29   22.18799           11071   256            302            594            0              9919           5.5640734e-13
        30   22.35005           11464   259            305            608            0              10292          5.6485864e-13
        31   22.465837          11861   261            306            622            0              10672          5.7338061e-13
        32   22.620651          12280   267            307            634            0              11072          5.817688e-13 
        33   22.801672          12669   268            310            646            0              11445          5.898592e-13 
        34   22.955377          13069   270            312            657            0              11830          5.9760839e-13
        35   23.18775           13488   276            316            669            0              12227          6.0549567e-13
        36   23.370533          13878   280            317            682            0              12599          6.1347332e-13
        37   23.649265          14282   282            318            696            0              12986          6.2129682e-13
        38   23.961685          14674   283            321            708            0              13362          6.2897588e-13
        39   24.263834          15083   287            324            726            0              13746          6.3649842e-13
        40   24.763979          15482   287            325            738            0              14132          6.4403065e-13
        41   25.289346          15869   288            325            750            0              14506          6.5139792e-13
        42   25.784071          16290   292            326            767            0              14905          6.5903067e-13
        43   26.664907          16685   293            329            788            0              15275          6.6622029e-13
        44   27.395743          17094   293            332            807            0              15662          6.7397595e-13
        45   28.343931          17494   296            335            818            0              16045          6.8150764e-13
        46   29.328193          17897   299            338            829            0              16431          6.8938106e-13
        47   30.346607          18310   302            340            854            0              16814          6.9721009e-13
        48   31.378506          18733   308            343            871            0              17211          7.0558377e-13
        49   32.402191          19139   312            345            890            0              17592          7.138476e-13 
        50   33.497682          19547   313            346            908            0              17980          7.2227185e-13
        51   34.60204           19971   314            350            932            0              18375          7.30606e-13  
        52   35.717867          20373   316            352            945            0              18760          7.3931629e-13
        53   36.844543          20795   320            354            972            0              19149          7.4827334e-13
        54   38.020944          21220   324            356            997            0              19543          7.5717054e-13
        55   39.231731          21634   324            357            1024           0              19929          7.6622664e-13
        56   40.500127          22051   325            358            1046           1              20321          7.7563553e-13
        57   41.813917          22466   326            359            1075           3              20703          7.8561363e-13
        58   43.156986          22881   327            359            1100           3              21092          7.9624531e-13
        59   44.525348          23286   328            360            1132           5              21461          8.0730714e-13
        60   46.003693          23710   329            360            1168           5              21848          8.1880519e-13
        61   47.423326          24112   329            361            1196           6              22220          8.3040053e-13
        62   48.819476          24518   329            362            1228           6              22593          8.4264824e-13
        63   50.276069          24903   331            362            1258           9              22943          8.5464451e-13
        64   51.742068          25322   331            362            1291           11             23327          8.669479e-13 
        65   53.22443           25723   332            364            1325           16             23686          8.7929831e-13
        66   54.72427           26130   332            366            1348           22             24062          8.9184233e-13
        67   56.230446          26508   334            367            1380           27             24400          9.0404865e-13
        68   57.781845          26943   336            368            1411           30             24798          9.1643072e-13
        69   59.342137          27308   338            368            1438           35             25129          9.2848047e-13
        70   61.243658          27742   340            368            1486           37             25511          9.4066876e-13
        71   62.957162          28153   341            369            1527           39             25877          9.5312834e-13
        72   64.655171          28548   342            369            1559           42             26236          9.6616099e-13
        73   66.458766          28951   345            370            1589           50             26597          9.7945041e-13
        74   68.25764           29364   346            370            1621           61             26966          9.9381913e-13
        75   70.084356          29763   346            372            1662           68             27315          1.0084296e-12
        76   71.946258          30173   346            373            1697           81             27676          1.0232537e-12
        77   73.84221           30561   347            373            1742           84             28015          1.0386269e-12
        78   75.751346          30973   347            373            1788           91             28374          1.0546882e-12
        79   77.654959          31376   348            374            1828           99             28727          1.0710381e-12
        80   79.689003          31789   349            374            1879           110            29077          1.0874197e-12
        81   81.697542          32189   350            375            1931           119            29414          1.1040815e-12
        82   83.746153          32603   350            377            1980           129            29767          1.121114e-12 
        83   85.812996          32995   350            377            2034           135            30099          1.1384364e-12
        84   87.88628           33408   350            377            2077           152            30452          1.1561441e-12
        85   90.033604          33786   351            377            2126           165            30767          1.1736565e-12
        86   92.229374          34202   351            377            2167           181            31126          1.1918471e-12
        87   94.425783          34597   351            378            2231           194            31443          1.210427e-12 
        88   96.664781          35010   351            378            2291           207            31783          1.2289825e-12
        89   98.998598          35410   351            379            2348           224            32108          1.2476039e-12
        90   101.38909          35814   351            379            2407           235            32442          1.2672151e-12
        91   103.72961          36189   351            379            2462           254            32743          1.2865732e-12
        92   106.105            36600   352            380            2514           269            33085          1.3062921e-12
        93   108.49035          36973   353            380            2559           287            33394          1.3254223e-12
        94   110.88362          37402   354            380            2630           306            33732          1.3448468e-12
        95   113.33304          37768   354            380            2675           322            34037          1.363939e-12 
        96   115.81118          38154   354            380            2728           335            34357          1.3830733e-12
        97   118.30928          38563   354            380            2808           344            34677          1.4025179e-12
        98   120.80703          38964   355            380            2876           353            35000          1.4217873e-12
        99   123.43357          39346   355            380            2953           359            35299          1.4405054e-12
       100   126.16895          39754   355            380            3013           367            35639          1.4600112e-12
       101   128.84524          40116   355            380            3070           379            35932          1.4793208e-12
       102   131.57404          40528   355            381            3149           386            36257          1.4988468e-12
       103   134.37408          40913   355            381            3225           393            36559          1.5188892e-12
       104   137.21375          41326   355            381            3306           398            36886          1.5395222e-12
       105   140.09984          41710   356            381            3382           409            37182          1.5608791e-12
       106   143.03206          42105   356            381            3467           414            37487          1.5829172e-12
       107   146.00971          42497   356            381            3555           420            37785          1.6055204e-12
       108   149.02886          42888   356            381            3630           433            38088          1.6284081e-12
       109   152.09273          43296   356            381            3720           444            38395          1.6516162e-12
       110   155.2794           43659   356            381            3813           456            38653          1.6747352e-12
       111   158.39195          44066   356            381            3893           465            38971          1.6977965e-12
       112   161.55057          44451   356            381            3981           475            39258          1.7206175e-12
       113   164.74013          44856   356            381            4076           490            39553          1.7433383e-12
       114   167.99088          45255   356            381            4174           499            39845          1.7656524e-12
       115   171.32631          45664   356            381            4272           509            40146          1.7877719e-12
       116   174.71842          46046   356            381            4351           520            40438          1.8098219e-12
       117   178.14486          46451   356            381            4423           544            40747          1.8323564e-12
       118   181.64496          46836   356            381            4517           557            41025          1.8544681e-12
       119   185.20752          47235   356            381            4608           572            41318          1.8768656e-12
       120   188.93749          47624   356            381            4698           588            41601          1.8996346e-12
       121   192.64532          48014   356            381            4785           609            41883          1.9229502e-12
       122   196.42299          48422   356            381            4885           622            42178          1.9471522e-12
       123   200.24509          48800   356            381            4959           648            42456          1.9717604e-12
       124   204.11518          49189   356            381            5037           669            42746          1.9962556e-12
       125   208.05749          49591   356            381            5128           688            43038          2.020591e-12 
       126   212.05397          50008   356            381            5224           713            43334          2.0450233e-12
       127   216.12964          50378   356            381            5281           753            43607          2.0696663e-12
       128   220.27227          50787   356            381            5382           780            43888          2.0945194e-12
       129   224.47928          51192   355            381            5480           807            44169          2.119409e-12 
       130   228.90988          51603   355            381            5563           839            44465          2.1449807e-12
       131   233.29091          52006   355            381            5654           877            44739          2.1713845e-12
       132   237.72622          52407   355            381            5751           907            45013          2.1989427e-12
       133   242.24059          52812   355            381            5843           939            45294          2.2272679e-12
       134   246.83113          53238   355            380            5944           979            45580          2.2563348e-12
       135   251.50116          53667   355            380            6054           1025           45853          2.2861243e-12
       136   256.25278          54074   356            380            6147           1065           46126          2.3165734e-12
       137   261.08001          54497   355            380            6256           1103           46403          2.347315e-12 
       138   265.97305          54920   354            380            6366           1147           46673          2.3785343e-12
       139   270.9584           55332   354            380            6479           1185           46934          2.4097505e-12
       140   276.14952          55761   354            381            6565           1225           47236          2.4412767e-12
       141   281.29536          56185   354            381            6688           1263           47499          2.4725973e-12
       142   286.52378          56604   353            381            6805           1303           47762          2.5041808e-12
       143   291.8218           57055   353            381            6914           1354           48053          2.5361264e-12
       144   297.19037          57459   353            381            7038           1393           48294          2.56938e-12  
       145   302.64543          57902   352            379            7162           1440           48569          2.6030618e-12
       146   308.17841          58355   352            379            7276           1489           48859          2.6379177e-12
       147   313.80989          58750   352            379            7381           1541           49097          2.6735215e-12
       148   319.48753          59190   351            379            7499           1590           49371          2.7100326e-12
       149   325.25358          59648   351            379            7634           1643           49641          2.7476157e-12
       150   331.24496          60055   351            379            7732           1702           49891          2.7851375e-12
       151   337.17202          60493   351            379            7854           1750           50159          2.8233623e-12
       152   343.17911          60933   351            379            7977           1799           50427          2.8613138e-12
       153   349.29024          61400   351            378            8130           1848           50693          2.8999036e-12
       154   355.48556          61846   351            378            8277           1891           50949          2.9391151e-12
       155   361.76789          62318   351            378            8412           1960           51217          2.9793475e-12
       156   368.11928          62757   351            378            8555           2003           51470          3.0219128e-12
       157   374.57352          63228   351            378            8708           2058           51733          3.0656794e-12
       158   381.14337          63706   351            378            8839           2125           52013          3.1109098e-12
       159   387.79873          64179   351            378            8991           2193           52266          3.1581699e-12
       160   394.69677          64633   351            378            9113           2270           52521          3.2077215e-12
       161   401.52292          65117   351            378            9275           2321           52792          3.2583105e-12
       162   408.44587          65631   351            377            9468           2382           53053          3.3094749e-12
       163   415.4806           66110   351            377            9650           2426           53306          3.3616666e-12
       164   422.61598          66611   349            377            9862           2466           53557          3.4143353e-12
       165   429.80735          67088   349            376            10031          2515           53817          3.4673935e-12
       166   437.12697          67601   349            376            10216          2572           54088          3.5212955e-12
       167   444.51238          68113   349            375            10427          2627           54335          3.5787405e-12
       168   451.99646          68637   349            375            10641          2683           54589          3.6388695e-12
       169   459.55972          69151   349            375            10811          2752           54864          3.703146e-12 
       170   467.37187          69683   349            374            11058          2800           55102          3.7708418e-12
       171   475.12135          70208   349            374            11262          2875           55348          3.8421224e-12
       172   482.97865          70801   349            373            11523          2931           55625          3.9158408e-12
       173   490.95239          71382   348            373            11802          2992           55867          3.9912879e-12
       174   499.03163          71936   348            373            12076          3045           56094          4.0701057e-12
       175   507.20921          72535   346            372            12342          3099           56376          4.154155e-12 
       176   515.51257          73121   346            372            12632          3159           56612          4.2448972e-12
       177   523.90006          73745   347            372            12949          3227           56850          4.3444752e-12
       178   532.41918          74390   347            371            13273          3286           57113          4.4524281e-12
       179   541.08941          75079   346            368            13675          3347           57343          4.57177e-12  
       180   550.10917          75766   346            366            14055          3416           57583          4.6995016e-12
       181   559.14607          76490   346            365            14440          3496           57843          4.8317401e-12
       182   568.37999          77244   346            364            14865          3585           58084          4.9716239e-12
       183   577.79864          77985   346            363            15290          3679           58307          5.1153123e-12
       184   587.34686          78702   346            362            15652          3766           58576          5.2505585e-12
       185   597.09791          79464   347            361            16080          3865           58811          5.3928483e-12
       186   606.98421          80209   347            359            16514          3960           59029          5.533161e-12 
       187   617.09883          80979   347            358            16920          4067           59287          5.6720963e-12
       188   627.3793           81763   347            358            17357          4175           59526          5.8187231e-12
       189   637.84852          82564   347            357            17831          4291           59738          5.9731896e-12
       190   648.68895          83383   347            357            18290          4400           59989          6.1289938e-12
       191   659.47651          84187   347            355            18744          4534           60207          6.2798228e-12
       192   670.44348          84979   346            352            19155          4672           60454          6.4266548e-12
       193   681.58177          85803   346            352            19621          4802           60682          6.5834849e-12
       194   692.89973          86630   346            352            20107          4925           60900          6.7342162e-12
       195   704.37564          87485   346            352            20605          5057           61125          6.9049688e-12
       196   715.95331          88344   345            352            21107          5178           61362          7.0674186e-12
       197   727.70402          89166   345            351            21601          5308           61561          7.2456737e-12
       198   739.56163          90086   345            351            22171          5441           61778          7.4182868e-12
       199   751.5745           90966   344            350            22718          5569           61985          7.6011339e-12
       200   763.97003          91874   344            348            23264          5727           62191          7.7808892e-12
       201   776.34022          92760   343            347            23779          5898           62393          7.9622491e-12
       202   788.83789          93704   341            346            24367          6076           62574          8.1416027e-12
       203   801.45695          94694   341            345            24978          6242           62788          8.3540421e-12
       204   814.18391          95611   341            344            25549          6418           62959          8.54612e-12  
       205   827.05456          96560   341            342            26144          6603           63130          8.7440636e-12
       206   840.02189          97498   340            338            26749          6783           63288          8.9430846e-12
       207   853.09374          98416   340            335            27324          6946           63471          9.1224371e-12
       208   866.312            99412   339            333            27974          7137           63629          9.3277169e-12
       209   879.65148         100375   339            331            28613          7327           63765          9.5216093e-12
       210   893.26796         101296   339            330            29193          7530           63904          9.7102702e-12
       211   906.7787          102266   338            328            29784          7770           64046          9.9080775e-12
       212   920.41034         103207   336            327            30376          8011           64157          1.0104948e-11
       213   934.10475         104118   336            327            30914          8256           64285          1.0287391e-11
       214   947.89595         105031   334            321            31453          8503           64420          1.0463921e-11
       215   961.77717         105939   332            318            32053          8728           64508          1.0647018e-11
       216   975.75245         106789   331            312            32579          8962           64605          1.0819224e-11
       217   989.85059         107694   329            310            33169          9182           64704          1.0982536e-11
       218   1003.9954         108533   328            308            33673          9446           64778          1.1139079e-11
       219   1018.2585         109318   328            306            34109          9724           64851          1.1280739e-11
       220   1032.8768         110075   325            297            34513          10012          64928          1.1392423e-11
       221   1047.3555         110900   323            293            34980          10302          65002          1.1548623e-11
       222   1062.0034         111660   319            288            35397          10578          65078          1.1649432e-11
       223   1076.6764         112417   317            283            35822          10855          65140          1.1740129e-11
       224   1091.4204         113075   310            276            36158          11133          65198          1.1828987e-11
       225   1106.269          113784   304            272            36559          11403          65246          1.1904007e-11
       226   1121.1951         114421   298            262            36874          11704          65283          1.1990766e-11
       227   1136.2323         115093   296            248            37240          11971          65338          1.2060397e-11
       228   1151.2911         115595   292            237            37406          12275          65385          1.2088158e-11
       229   1166.469          116237   282            228            37738          12568          65421          1.2129901e-11
       230   1181.9982         116783   275            221            37958          12866          65463          1.2167924e-11
       231   1197.3248         117372   266            210            38239          13162          65495          1.2204298e-11
       232   1212.7108         117870   256            201            38416          13462          65535          1.2237732e-11
       233   1228.151          118354   248            196            38564          13766          65580          1.2248198e-11
       234   1243.7211         118896   234            186            38756          14098          65622          1.2253011e-11
       235   1259.4103         119404   227            177            38964          14374          65662          1.2258546e-11
       236   1275.1526         119848   214            173            39061          14715          65685          1.2262588e-11
       237   1290.9933         120406   207            165            39269          15056          65709          1.2295964e-11
       238   1306.9399         120906   197            152            39405          15413          65739          1.2310682e-11
       239   1322.9364         121311   189            145            39471          15745          65761          1.2309405e-11
       240   1339.3027         121810   177            138            39587          16100          65808          1.2315258e-11
       241   1355.4789         122223   164            134            39630          16451          65844          1.2287716e-11
       242   1371.7408         122667   156            124            39722          16793          65872          1.2270712e-11
       243   1388.0523         123114   147            115            39800          17150          65902          1.2279843e-11
       244   1404.3913         123507   135            104            39787          17551          65930          1.2262266e-11
       245   1420.7387         123937   121            96             39825          17932          65963          1.2255617e-11
       246   1437.1688         124280   113            93             39798          18289          65987          1.2219129e-11
       247   1453.6607         124764   107            89             39909          18639          66020          1.2228017e-11
       248   1470.2517         125257   97             77             40063          18971          66049          1.2256465e-11
       249   1486.8915         125675   91             68             40140          19299          66077          1.2251192e-11
       250   1503.903          126022   87             65             40127          19634          66109          1.2230617e-11
       251   1520.771          126444   78             63             40186          19978          66139          1.2219098e-11
       252   1537.6885         126855   74             62             40294          20257          66168          1.2199099e-11
       253   1554.6982         127347   66             57             40431          20599          66194          1.2233508e-11
       254   1571.7487         127698   62             50             40406          20957          66223          1.2225084e-11
       255   1588.8732         128144   59             45             40479          21309          66252          1.2222711e-11
       256   1606.029          128497   58             43             40514          21607          66275          1.2218479e-11
       257   1623.2722         128919   58             36             40579          21950          66296          1.2202673e-11
       258   1640.5971         129276   57             30             40566          22300          66323          1.2198368e-11
       259   1657.968          129664   57             28             40612          22610          66357          1.2192156e-11
       260   1675.7727         129988   53             27             40607          22928          66373          1.2166855e-11
       261   1693.2726         130363   48             27             40624          23263          66401          1.2168678e-11
       262   1710.9061         130849   44             25             40771          23578          66431          1.2177682e-11
       263   1728.5633         131199   42             25             40779          23902          66451          1.2162469e-11
       264   1746.2093         131535   41             24             40725          24269          66476          1.2164833e-11
       265   1763.9508         131915   41             22             40703          24647          66502          1.2158535e-11
       266   1781.7611         132295   41             22             40693          25013          66526          1.2153733e-11
       267   1799.6335         132676   37             22             40668          25401          66548          1.2171741e-11
       268   1817.5984         133143   37             22             40740          25767          66577          1.2179663e-11
       269   1835.6639         133511   36             22             40679          26173          66601          1.2168155e-11
       270   1854.0646         133819   36             20             40566          26572          66625          1.2180622e-11
       271   1872.2541         134117   36             19             40429          26990          66643          1.2151978e-11
       272   1890.5172         134520   34             19             40375          27420          66672          1.2157615e-11
       273   1908.7807         134898   34             19             40325          27827          66693          1.2160601e-11
       274   1927.1072         135322   34             19             40287          28267          66715          1.2173178e-11
       275   1945.5034         135650   32             18             40155          28704          66741          1.2175142e-11
       276   1963.9432         135956   32             18             39993          29150          66763          1.2182922e-11
       277   1982.4981         136341   30             17             39900          29608          66786          1.2176168e-11
       278   2001.1291         136740   29             17             39827          30058          66809          1.21817e-11  
       279   2019.8411         137066   28             17             39669          30521          66831          1.2172771e-11
       280   2038.9193         137395   27             17             39506          30993          66852          1.2181179e-11
       281   2057.6967         137692   27             17             39271          31501          66876          1.2187009e-11
       282   2076.5623         138050   26             17             39120          31990          66897          1.2187611e-11
       283   2095.4832         138435   26             17             39042          32433          66917          1.2195433e-11
       284   2114.4216         138824   26             17             38914          32928          66939          1.220483e-11 
       285   2133.4806         139153   26             16             38770          33382          66959          1.2209112e-11
       286   2152.6266         139452   26             15             38547          33881          66983          1.2209477e-11
       287   2171.8233         139812   26             15             38419          34349          67003          1.2205939e-11
       288   2191.0092         140193   26             15             38280          34848          67024          1.2226345e-11
       289   2210.3362         140513   26             15             38107          35321          67044          1.2221963e-11
       290   2229.9501         140893   26             15             37988          35798          67066          1.2240014e-11
       291   2249.2589         141226   26             15             37838          36260          67087          1.2259736e-11
       292   2268.6619         141493   26             15             37651          36690          67111          1.2270415e-11
       293   2288.3213         141900   26             14             37600          37130          67130          1.228227e-11 
       294   2307.8572         142270   26             14             37527          37548          67155          1.2284912e-11
       295   2327.427          142564   26             14             37385          37965          67174          1.2296757e-11
       296   2347.2773         142873   26             14             37227          38408          67198          1.2280007e-11
       297   2367.1711         143170   26             14             37070          38841          67219          1.2283783e-11
       298   2387.1132         143548   25             14             37043          39229          67237          1.2294247e-11
       299   2407.0227         143874   25             14             36944          39630          67261          1.229578e-11 
       300   2427.3295         144168   25             14             36838          40014          67277          1.2323925e-11
       301   2447.3927         144483   25             14             36769          40374          67301          1.232404e-11 
       302   2467.4257         144818   25             14             36695          40764          67320          1.2339486e-11
       303   2487.6068         145195   25             14             36651          41160          67345          1.2341407e-11
       304   2507.7887         145477   25             14             36504          41570          67364          1.2357985e-11
       305   2528.0027         145893   25             14             36559          41910          67385          1.2372096e-11
       306   2548.303          146163   25             14             36449          42271          67404          1.2385411e-11
       307   2568.6862         146513   25             14             36416          42632          67426          1.2417305e-11
       308   2589.0683         146834   25             14             36378          42972          67445          1.2429188e-11
       309   2609.5899         147178   25             14             36331          43338          67470          1.2432696e-11
       310   2630.5806         147543   25             14             36333          43684          67487          1.246005e-11 
       311   2651.2649         147953   25             14             36395          44007          67512          1.2473957e-11
       312   2671.9986         148114   25             14             36187          44358          67530          1.2449869e-11
       313   2692.8308         148404   25             14             36135          44677          67553          1.2462897e-11
       314   2713.7252         148764   25             14             36138          45015          67572          1.2470993e-11
       315   2734.6725         149133   25             14             36163          45334          67597          1.2485815e-11
       316   2755.6246         149453   25             14             36165          45634          67615          1.2489918e-11
       317   2776.708          149761   25             14             36149          45933          67640          1.2495237e-11
       318   2797.8189         150063   25             14             36152          46213          67659          1.2507747e-11
       319   2819.0041         150419   25             14             36143          46554          67683          1.2534088e-11
       320   2840.6265         150705   25             14             36066          46899          67701          1.2534221e-11
Loop time of 2840.63 on 16 procs for 320 steps with 150705 atoms

97.7% CPU use with 16 MPI tasks x 1 OpenMP threads

MPI task timing breakdown:
Section |  min time  |  avg time  |  max time  |%varavg| %total
---------------------------------------------------------------
Pair    | 685.44     | 851.19     | 1101.4     | 444.9 | 29.96
Neigh   | 454.19     | 565.05     | 747.16     | 478.1 | 19.89
Comm    | 353.61     | 443.5      | 552.91     | 323.0 | 15.61
Output  | 23.851     | 23.851     | 23.852     |   0.0 |  0.84
Modify  | 483.89     | 942.19     | 1248.1     | 877.8 | 33.17
Other   |            | 14.84      |            |       |  0.52

Nlocal:        9419.06 ave       12606 max        7809 min
Histogram: 8 3 0 0 0 0 0 0 3 2
Nghost:        7291.88 ave        9833 max        5965 min
Histogram: 4 5 1 1 1 0 0 0 3 1
Neighs:        90672.1 ave      100078 max       82959 min
Histogram: 2 2 4 2 1 0 0 0 1 4

Total # of neighbors = 1450753
Ave neighs/atom = 9.6264424
Neighbor list builds = 28114
Dangerous builds = 27794

Total wall time: 0:47:21
