LAMMPS (23 Jun 2022 - Update 4)
  using 1 OpenMP thread(s) per MPI task
package omp 0
using multi-threaded neighbor list subroutines
#-----------------------------------------------------------------------------#
#                NUFEB Simulation: Heterotrophic Biofilm Growth               #
#-----------------------------------------------------------------------------#


#-----------------------------System Settings---------------------------------#

units si                                    # using si units (m, s, kg)
atom_style      coccus                      # using nufeb coccus atom style
atom_modify     map array sort 10 0         # map array - find atoms using indices
		                            # sort every 10

boundary        pp pp ff                    # periodic boundaries in x and y
                                            # fixed boundary in z

newton          off                         # forces between local and ghost
                                            # atoms are computed in each
					     # processor without communication

processors      * * 1                       # processor grid

comm_modify     vel yes                     # communicate velocities for ghost atoms

read_data       atom_ch.in	             # read atom.in file which defines domain size
Reading data file ...
  orthogonal box = (0 0 0) to (6e-05 6e-05 6e-05)
  4 by 4 by 1 MPI processor grid
  reading atoms ...
  150 atoms
  read_data CPU = 0.008 seconds
                                            # and initial atoms


#--------------------Microbes and Functional Groups-------------------------#

group           CROSS1   type 1               # assign type 1,2 atoms to CROSS group
50 atoms in group CROSS1
group           CROSS2   type 2
50 atoms in group CROSS2
group		CHEATER  type 3
50 atoms in group CHEATER
group           dead     type 4
0 atoms in group dead
group		EPS	 type 5
0 atoms in group EPS

neighbor        5e-7 bin                   # setting neighbour skin distance and style

neigh_modify    check yes                  # rebuild neighbour list if any atom
                                           # had moved more than half the skin distance


#--------------------------Mesh Grid and Substrates--------------------------#

# defining grid sytle, substrate names, and grid size
grid_style      nufeb/chemostat 3 sub metab1 metab2 5e-6

# set diffusion boundary conditions and initial concentrations (liquid:kg/m3)
grid_modify     set sub      pp pp nd  1.8e-4
No /omp style for force computation currently active
grid_modify     set metab1   pp pp nd  1e-4
No /omp style for force computation currently active
grid_modify     set metab2   pp pp nd  1e-4
No /omp style for force computation currently active


#--------------------------Biological Processes-------------------------------#

# heterotrophs growth
fix growth_cross1 CROSS1 nufeb/growth/cross1 sub 3.5e-5 metab2 4e-3 metab1 growth 0.009 yield 0.6 decay 2.6e-6 metab1_exp 20 epsyield 0.12 epsdens 30

fix growth_cross2 CROSS2 nufeb/growth/cross2 sub 3.5e-5 metab1 4e-3 metab2 growth 0.009 yield 0.6 decay 2.6e-6 metab2_exp 20 epsyield 0.12 epsdens 30

fix growth_cheater CHEATER nufeb/growth/cheater sub 3.5e-5 metab1 1e-3 metab2 1e-3 growth 0.009 yield 0.6 decay 2.6e-6

# heterotrophs division, division diameter: 1.36e-6
fix div1 CROSS1 nufeb/division/coccus 1.36e-6 2603
fix div2 CROSS2 nufeb/division/coccus 1.36e-6 10106
fix div3 CHEATER nufeb/division/coccus 1.36e-6 22609

fix death1 CROSS1 nufeb/death/diameter dead 5.43e-7
fix death2 CROSS2 nufeb/death/diameter dead 5.43e-7
fix death3 CHEATER nufeb/death/diameter dead 5.43e-7

# EPS secretion from heterotrophs
fix eps1 CROSS1 nufeb/eps_secretion 5 EPS 1.1 30 40112
fix eps2 CROSS2 nufeb/eps_secretion 5 EPS 1.1 30 62615

#---------------------------Physical Processes--------------------------------#

pair_style  gran/hooke/history 1e-4 NULL 1e-5 NULL 0.0 0    # pairwise interaction
pair_coeff  * *                                             # between atoms

# pairwise interaction between z-wall and atoms
fix wall all wall/gran hooke/history 1e-3 NULL 1e-4 NULL 0 0 zplane 0.0 1e-04

fix vis all viscous 1e-5                                    # viscous damping force

fix grav all gravity 9.81 vector 0.0 0.0 -1.0

fix nve all nve/limit 1e-7                                  # NVE integration with
                                                            # maximum distance limit


#---------------------------Post-Physical Processes---------------------------#

fix coeff_sub all nufeb/diffusion_coeff sub ratio 0.8       # defining diffusion coeff in the biofilm
fix coeff_metab1 all nufeb/diffusion_coeff metab1 ratio 0.8    # region is 80% of the value in liquid
fix coeff_metab2 all nufeb/diffusion_coeff metab2 ratio 0.8

#---------------------------Chemical Processes---------------------------------#

fix diff_sub all nufeb/diffusion_reaction sub 1e-9        # diffusion reaction for updating
fix diff_metab1 all nufeb/diffusion_reaction metab1 4e-9     # distribusion of substrate concentration
fix diff_metab2 all nufeb/diffusion_reaction metab2 4e-9

#--------------------------Computations and Outputs----------------------------#

variable mass equal "mass(all)"                             # total mass
variable ncross1 equal "count(CROSS1)"                      # total # of CROSS1
variable ncross2 equal "count(CROSS2)"                      # total # of CROSS2
variable ncheater equal "count(CHEATER)"
variable ndead equal "count(dead)"
variable neps equal "count(EPS)"

shell mkdir vtk_EPS_ch                                            # dump vtk files to /vtk folder
dump du1 all vtk 10 vtk_EPS_ch/dump*.vtu id type diameter         # require build NUFEB with vtk option
dump du2 all grid/vtk 10 vtk_EPS_ch/dump_%_*.vti con rea den gro

#dump du3 all movie 10 movie.avi type diameter view 80 60    # dump video
#dump_modify du3 acolor 1 blue acolor 2 lightgrey framerate 10


                                                            # dump hdf5 files to /hdf5 folder
#shell mkdir hdf5                                           # require build NUFEB with hdf5 option
#dump du3 all nufeb/hdf5 10 dump.h5 id type x y z vx vy vz fx fy fz radius conc reac

thermo_style custom step cpu atoms v_ncross1 v_ncross2 v_ncheater v_ndead v_neps v_mass     # screen and log outputs
thermo 1
thermo_modify   lost ignore

#-----------------------------------Run----------------------------------------#

# issue run command, define timesteps for physical (pairdt) and chemical (diffdt) processes
run_style nufeb diffdt 1e-4 difftol 1e-6 pairdt 1e-2 pairtol 1 pairmax 1000 diffmax 5000

timestep 12000                                               # define biological timesteps (1000s)

run 320                                                    # growing biofilm for 900x1000s
Generated 0 of 6 mixed pair_coeff terms from geometric mixing rule
Last active /omp style is pair_style gran/hooke/history/omp
Neighbor list info ...
  update every 1 steps, delay 10 steps, check yes
  max neighbors/atom: 2000, page size: 100000
  master list distance cutoff = 2.49e-06
  ghost atom cutoff = 2.49e-06
  binsize = 1.245e-06, bins = 49 49 49
  1 neighbor lists, perpetual/occasional/extra = 1 0 0
  (1) pair gran/hooke/history/omp, perpetual
      attributes: half, newton off, size, history, omp
      pair build: half/size/bin/newtoff/omp
      stencil: full/bin/3d
      bin: standard
Per MPI rank memory allocation (min/avg/max) = 11.02 | 11.02 | 11.02 Mbytes
   Step          CPU          Atoms      v_ncross1      v_ncross2      v_ncheater      v_ndead         v_neps         v_mass    
         0   0                    150   50             50             50             0              0              1.3295396e-13
         1   0.38645223           432   90             85             86             0              171            1.7268321e-13
         2   0.76881603           792   116            127            137            0              412            1.9560721e-13
         3   1.0914376           1131   127            148            180            0              676            2.1492525e-13
         4   1.3943606           1435   138            152            205            0              940            2.3290003e-13
         5   1.5958728           1750   141            161            220            0              1228           2.5031622e-13
         6   1.7870202           2080   148            168            239            0              1525           2.6744917e-13
         7   1.9426284           2425   158            177            252            0              1838           2.8428068e-13
         8   2.0823644           2779   165            184            275            0              2155           3.0093629e-13
         9   2.2315254           3144   168            193            300            0              2483           3.1707514e-13
        10   9.9392442           3503   173            199            312            0              2819           3.3306056e-13
        11   10.086811           3874   176            208            333            0              3157           3.4884539e-13
        12   10.202911           4243   183            212            354            0              3494           3.6410745e-13
        13   10.329793           4627   189            219            369            0              3850           3.7914979e-13
        14   10.448937           5035   196            227            387            0              4225           3.9398824e-13
        15   10.560779           5431   200            233            410            0              4588           4.0823957e-13
        16   10.667432           5816   203            234            425            0              4954           4.2217137e-13
        17   10.79441            6214   206            238            443            0              5327           4.3593023e-13
        18   10.894296           6603   212            245            461            0              5685           4.4924387e-13
        19   10.992446           7014   219            249            482            0              6064           4.6222361e-13
        20   11.103834           7412   221            256            496            0              6439           4.7476046e-13
        21   11.203218           7810   224            261            517            0              6808           4.868786e-13 
        22   11.290605           8208   228            262            532            0              7186           4.9852943e-13
        23   11.393541           8615   233            268            543            0              7571           5.0983138e-13
        24   11.515956           8998   239            272            559            0              7928           5.2075006e-13
        25   11.624275           9387   241            274            571            0              8301           5.3094014e-13
        26   11.734855           9793   249            280            586            0              8678           5.4074217e-13
        27   11.835554          10195   251            282            604            0              9058           5.5026015e-13
        28   11.948802          10586   257            283            613            0              9433           5.5922569e-13
        29   12.044179          10988   260            288            628            0              9812           5.6771493e-13
        30   12.17089           11359   263            288            637            0              10171          5.7596847e-13
        31   12.26              11754   267            291            647            0              10549          5.8408289e-13
        32   12.350595          12155   271            294            655            0              10935          5.9199387e-13
        33   12.468531          12543   275            297            666            0              11305          5.9964477e-13
        34   12.604558          12938   281            299            676            0              11682          6.0688056e-13
        35   12.731897          13338   285            300            686            0              12067          6.1396807e-13
        36   12.867268          13733   288            304            695            0              12446          6.2098475e-13
        37   13.109935          14137   291            308            701            0              12837          6.2788373e-13
        38   13.372983          14531   293            311            708            0              13219          6.3402125e-13
        39   13.685974          14939   297            311            713            0              13618          6.4010091e-13
        40   14.016304          15336   299            314            723            0              14000          6.4588632e-13
        41   14.466681          15760   306            317            733            0              14404          6.5124357e-13
        42   15.067419          16166   308            317            740            0              14801          6.5635529e-13
        43   15.725121          16573   312            318            747            0              15196          6.6128973e-13
        44   16.582226          16983   314            322            755            0              15592          6.6603111e-13
        45   17.452748          17394   316            323            760            0              15995          6.7087218e-13
        46   18.341204          17806   316            325            767            0              16398          6.7514097e-13
        47   19.251766          18207   319            326            771            0              16791          6.7910746e-13
        48   20.17321           18614   323            329            774            0              17188          6.8291696e-13
        49   21.104348          19030   323            331            782            0              17594          6.8686468e-13
        50   22.145292          19445   328            335            787            0              17995          6.9096112e-13
        51   23.134422          19863   328            338            793            0              18404          6.9491772e-13
        52   24.150676          20261   330            340            796            0              18795          6.9837543e-13
        53   25.184233          20701   333            341            800            0              19227          7.0211989e-13
        54   26.221225          21114   337            345            805            0              19627          7.0559757e-13
        55   27.285927          21542   338            346            813            0              20045          7.0934175e-13
        56   28.422107          21946   341            347            815            0              20443          7.1263612e-13
        57   29.531554          22367   342            350            820            0              20855          7.1543102e-13
        58   30.762046          22789   343            350            821            1              21274          7.183001e-13 
        59   31.952422          23205   344            353            827            1              21680          7.2046296e-13
        60   33.223089          23628   344            356            828            1              22099          7.2287473e-13
        61   34.460653          24046   345            357            834            2              22508          7.2503542e-13
        62   35.700089          24473   345            361            834            4              22929          7.2721053e-13
        63   36.943494          24896   346            363            837            5              23345          7.2934366e-13
        64   38.217942          25318   348            367            842            6              23755          7.3145275e-13
        65   39.545098          25749   350            369            843            6              24181          7.3370718e-13
        66   40.900717          26177   356            372            850            6              24593          7.3572092e-13
        67   42.286766          26611   359            373            851            10             25018          7.3780212e-13
        68   43.671106          27049   362            376            855            11             25445          7.3981122e-13
        69   45.117098          27486   365            378            857            14             25872          7.4205507e-13
        70   46.655034          27926   365            379            863            14             26305          7.4435529e-13
        71   48.152567          28359   367            382            868            16             26726          7.4710416e-13
        72   49.675998          28813   370            382            874            18             27169          7.4979731e-13
        73   51.253655          29248   371            384            872            22             27599          7.5271446e-13
        74   52.855419          29701   372            385            884            25             28035          7.5613769e-13
        75   54.484361          30139   373            386            887            30             28463          7.5990079e-13
        76   56.153064          30595   374            387            893            34             28907          7.6404401e-13
        77   57.833949          31020   374            389            900            41             29316          7.6834502e-13
        78   59.542995          31469   374            390            905            46             29754          7.7280862e-13
        79   61.324514          31914   375            390            917            51             30181          7.7733286e-13
        80   63.204             32361   376            393            922            57             30613          7.8238504e-13
        81   64.995784          32799   377            395            929            64             31034          7.8747721e-13
        82   66.848504          33250   378            395            934            72             31471          7.9272689e-13
        83   68.712062          33697   380            397            947            76             31897          7.9817172e-13
        84   70.632444          34152   382            398            960            85             32327          8.0369359e-13
        85   72.605382          34588   383            400            968            89             32748          8.0935467e-13
        86   74.695259          35068   385            402            987            94             33200          8.1558952e-13
        87   76.81317           35486   385            402            994            102            33603          8.2278636e-13
        88   78.952644          35939   386            403            1013           105            34032          8.3089133e-13
        89   81.142915          36391   388            403            1034           112            34454          8.3922725e-13
        90   83.567362          36828   389            405            1055           117            34862          8.4826071e-13
        91   85.838884          37279   390            405            1076           125            35283          8.5921228e-13
        92   88.185834          37712   390            408            1099           132            35683          8.7067852e-13
        93   90.54099           38177   390            409            1130           141            36107          8.8327484e-13
        94   92.914202          38582   390            410            1161           144            36477          8.9647552e-13
        95   95.315439          39032   391            411            1190           152            36888          9.1034573e-13
        96   97.747101          39471   391            413            1234           161            37272          9.2449484e-13
        97   100.24321          39915   391            413            1263           170            37678          9.3915722e-13
        98   102.79454          40354   391            415            1303           181            38064          9.5422014e-13
        99   105.34927          40762   391            415            1342           188            38426          9.6970865e-13
       100   108.07825          41192   391            416            1381           193            38811          9.8570686e-13
       101   110.74323          41635   393            416            1438           198            39190          1.0022237e-12
       102   113.43358          42061   393            417            1485           207            39559          1.019162e-12 
       103   116.16253          42497   393            419            1529           215            39941          1.0361903e-12
       104   118.89956          42911   394            419            1568           225            40305          1.0535505e-12
       105   121.72032          43325   394            420            1611           228            40672          1.0713875e-12
       106   124.5643           43737   395            423            1683           228            41008          1.0897747e-12
       107   127.4708           44180   395            423            1748           235            41379          1.1087677e-12
       108   130.37333          44574   396            424            1794           237            41723          1.1284305e-12
       109   133.33256          44983   396            424            1861           240            42062          1.1485331e-12
       110   136.44093          45412   397            426            1923           241            42425          1.1681629e-12
       111   139.51756          45848   398            428            1991           247            42784          1.1881165e-12
       112   142.55445          46213   399            429            2035           248            43102          1.207815e-12 
       113   145.63525          46619   400            430            2099           255            43435          1.2271547e-12
       114   148.75857          47053   400            431            2158           267            43797          1.2465511e-12
       115   151.9063           47458   400            434            2225           276            44123          1.2654117e-12
       116   155.0734           47852   401            436            2266           295            44454          1.2842952e-12
       117   158.30482          48271   403            436            2317           312            44803          1.3030317e-12
       118   161.58306          48682   404            438            2354           335            45151          1.3213377e-12
       119   164.8937           49070   406            439            2401           354            45470          1.339275e-12 
       120   168.40751          49476   407            439            2436           375            45819          1.3568188e-12
       121   171.86482          49869   409            440            2474           402            46144          1.3736567e-12
       122   175.35062          50272   410            443            2520           423            46476          1.3906784e-12
       123   178.90011          50688   412            446            2568           443            46819          1.4079576e-12
       124   182.50933          51108   412            446            2612           469            47169          1.4250727e-12
       125   186.15504          51500   413            448            2665           487            47487          1.4421304e-12
       126   189.86176          51885   415            450            2703           508            47809          1.458762e-12 
       127   193.65993          52307   417            456            2761           526            48147          1.4751728e-12
       128   197.47746          52695   420            457            2799           548            48471          1.4921891e-12
       129   201.31633          53083   420            460            2837           572            48794          1.5087863e-12
       130   205.34459          53491   420            461            2882           598            49130          1.5252355e-12
       131   209.30424          53868   420            463            2924           619            49442          1.5412176e-12
       132   213.25944          54276   420            466            2993           632            49765          1.5572727e-12
       133   217.28558          54688   421            471            3044           646            50106          1.5729787e-12
       134   221.29385          55110   422            474            3105           656            50453          1.5878918e-12
       135   225.36367          55524   423            477            3167           668            50789          1.6024481e-12
       136   229.48459          55945   424            477            3226           686            51132          1.6165534e-12
       137   233.6644           56377   428            477            3276           702            51494          1.630299e-12 
       138   237.89856          56807   428            479            3335           714            51851          1.6439603e-12
       139   242.2327           57271   428            479            3406           728            52230          1.6575301e-12
       140   246.77059          57717   428            479            3471           746            52593          1.6716421e-12
       141   251.25149          58129   430            479            3517           768            52935          1.6857059e-12
       142   255.80034          58561   431            484            3573           788            53285          1.7003303e-12
       143   260.4063           59028   434            484            3616           815            53679          1.7155199e-12
       144   265.10209          59466   436            484            3685           833            54028          1.7312987e-12
       145   269.8221           59916   436            484            3752           845            54399          1.7476526e-12
       146   274.5649           60349   437            484            3809           862            54757          1.7647063e-12
       147   279.37569          60821   437            485            3877           882            55140          1.7818421e-12
       148   284.29724          61290   437            485            3949           902            55517          1.7989975e-12
       149   289.28539          61778   438            485            4014           930            55911          1.8168462e-12
       150   294.5371           62243   438            485            4086           945            56289          1.8351507e-12
       151   299.71496          62702   438            486            4163           968            56647          1.854081e-12 
       152   304.98736          63209   438            486            4245           990            57050          1.8738533e-12
       153   310.32903          63678   438            486            4322           1019           57413          1.8947037e-12
       154   315.74689          64165   438            486            4399           1045           57797          1.916349e-12 
       155   321.25933          64675   438            486            4483           1080           58188          1.9389348e-12
       156   326.85415          65172   438            486            4569           1115           58564          1.9620629e-12
       157   332.52494          65665   438            486            4659           1147           58935          1.9855183e-12
       158   338.25838          66153   437            486            4742           1171           59317          2.0092657e-12
       159   344.0527           66640   437            486            4821           1202           59694          2.0330422e-12
       160   350.09134          67150   437            486            4916           1228           60083          2.0565963e-12
       161   356.04859          67634   437            486            4976           1265           60470          2.0802642e-12
       162   362.04778          68128   437            486            5065           1290           60850          2.1041352e-12
       163   368.17618          68629   436            486            5155           1324           61228          2.1279166e-12
       164   374.44004          69103   436            486            5240           1353           61588          2.1515842e-12
       165   380.79582          69641   436            486            5345           1385           61989          2.1774038e-12
       166   387.21864          70134   436            486            5435           1409           62368          2.203869e-12 
       167   393.72881          70626   436            486            5531           1443           62730          2.2319226e-12
       168   400.32698          71126   436            486            5611           1489           63104          2.2619737e-12
       169   407.01313          71630   436            486            5712           1518           63478          2.2929878e-12
       170   413.94812          72106   436            486            5809           1551           63824          2.3245149e-12
       171   420.79895          72626   436            486            5919           1585           64200          2.3565338e-12
       172   427.80169          73099   436            485            6034           1611           64533          2.3884921e-12
       173   434.85947          73629   436            485            6151           1641           64916          2.4208576e-12
       174   442.00369          74145   435            485            6283           1668           65274          2.4528157e-12
       175   449.24955          74639   435            485            6402           1690           65627          2.4844198e-12
       176   456.62488          75159   434            486            6528           1714           65997          2.5162335e-12
       177   464.10434          75659   432            486            6625           1765           66351          2.5491079e-12
       178   471.70826          76174   432            486            6763           1798           66695          2.5830683e-12
       179   479.43259          76690   431            486            6898           1833           67042          2.6186055e-12
       180   487.46113          77218   431            486            7025           1872           67404          2.65567e-12  
       181   495.38492          77729   431            486            7155           1921           67736          2.6942746e-12
       182   503.46158          78245   431            486            7296           1957           68075          2.734898e-12 
       183   511.61785          78757   431            486            7420           2004           68416          2.7765304e-12
       184   519.86065          79262   431            486            7548           2058           68739          2.818961e-12 
       185   528.20589          79794   431            486            7686           2106           69085          2.8617751e-12
       186   536.63114          80284   431            485            7817           2158           69393          2.9050373e-12
       187   545.16532          80788   431            485            7946           2225           69701          2.9496153e-12
       188   553.79329          81360   431            485            8107           2278           70059          2.9950072e-12
       189   562.51308          81869   431            484            8252           2336           70366          3.0412093e-12
       190   571.53709          82394   431            484            8429           2384           70666          3.0887815e-12
       191   580.49488          82940   431            484            8602           2431           70992          3.1382964e-12
       192   589.5585           83478   431            483            8768           2485           71311          3.1892015e-12
       193   598.73673          83993   428            483            8941           2537           71604          3.2409455e-12
       194   607.98138          84527   427            483            9119           2582           71916          3.2935015e-12
       195   617.32011          85057   427            482            9287           2639           72222          3.346872e-12 
       196   626.79532          85625   425            481            9497           2701           72521          3.4026851e-12
       197   636.40913          86195   425            481            9677           2761           72851          3.4601279e-12
       198   646.12375          86739   425            479            9832           2850           73153          3.5194673e-12
       199   655.95121          87312   423            479            10037          2928           73445          3.5833183e-12
       200   666.1268           87887   421            475            10232          3008           73751          3.6492938e-12
       201   676.22956          88440   419            474            10401          3101           74045          3.7193579e-12
       202   686.41471          89026   419            473            10608          3197           74329          3.7924739e-12
       203   696.70902          89612   417            471            10831          3273           74620          3.8674091e-12
       204   707.13881          90214   416            471            11041          3370           74916          3.9446911e-12
       205   717.80086          90808   416            469            11268          3467           75188          4.0257116e-12
       206   728.59885          91424   415            469            11530          3550           75460          4.112461e-12 
       207   739.56884          92058   414            467            11768          3657           75752          4.20726e-12  
       208   750.6899           92728   411            465            12083          3746           76023          4.3116395e-12
       209   761.98234          93441   409            465            12416          3842           76309          4.4239918e-12
       210   773.6622           94131   407            464            12739          3932           76589          4.5446067e-12
       211   785.3384           94852   406            463            13098          4030           76855          4.6718056e-12
       212   797.18097          95589   406            462            13460          4127           77134          4.8021254e-12
       213   809.21785          96358   402            460            13881          4213           77402          4.9380422e-12
       214   821.417            97083   400            460            14257          4315           77651          5.0775733e-12
       215   833.75282          97882   398            460            14682          4416           77926          5.221611e-12 
       216   846.21633          98650   397            459            15087          4512           78195          5.3562574e-12
       217   858.80881          99368   397            456            15483          4598           78434          5.4921162e-12
       218   871.54991         100179   397            454            15936          4690           78702          5.6399291e-12
       219   884.40762         100994   395            453            16398          4775           78973          5.7884117e-12
       220   897.6132          101814   392            452            16867          4887           79216          5.9409975e-12
       221   910.67232         102619   390            452            17334          4972           79471          6.0966152e-12
       222   923.84959         103417   390            450            17780          5070           79727          6.2459897e-12
       223   937.12763         104220   388            450            18264          5148           79970          6.3908068e-12
       224   950.44988         105037   387            447            18725          5249           80229          6.5468657e-12
       225   963.85989         105875   386            446            19207          5369           80467          6.7072683e-12
       226   977.33399         106756   384            445            19758          5473           80696          6.8795053e-12
       227   990.86614         107657   379            442            20331          5588           80917          7.0628308e-12
       228   1004.4673         108518   378            435            20865          5705           81135          7.2305081e-12
       229   1018.1232         109407   373            428            21423          5837           81346          7.4101608e-12
       230   1032.0765         110318   370            423            21994          5983           81548          7.6089639e-12
       231   1045.9108         111228   368            420            22578          6107           81755          7.7865318e-12
       232   1059.7732         112122   366            416            23153          6249           81938          7.9657906e-12
       233   1073.6039         113074   364            415            23784          6388           82123          8.1510708e-12
       234   1087.5025         113989   358            412            24370          6549           82300          8.3720572e-12
       235   1101.4862         114977   353            409            24997          6746           82472          8.5744119e-12
       236   1115.5692         116000   351            406            25660          6943           82640          8.7804025e-12
       237   1129.6669         116866   347            400            26219          7120           82780          8.9762552e-12
       238   1143.7931         117819   342            392            26826          7340           82919          9.1766483e-12
       239   1157.9719         118756   338            384            27418          7562           83054          9.3863348e-12
       240   1172.5382         119700   337            379            28016          7778           83190          9.5933708e-12
       241   1186.862          120679   332            377            28652          7995           83323          9.7893626e-12
       242   1201.2507         121670   322            371            29350          8205           83422          1.0003053e-11
       243   1215.6928         122554   318            367            29961          8393           83515          1.0204677e-11
       244   1230.2051         123468   311            357            30557          8629           83614          1.039125e-11 
       245   1244.7688         124392   308            349            31132          8891           83712          1.0574577e-11
       246   1259.3846         125380   303            347            31812          9117           83801          1.0775525e-11
       247   1274.0351         126234   300            339            32341          9380           83874          1.0946309e-11
       248   1288.7593         127092   293            330            32928          9604           83937          1.1104565e-11
       249   1303.5306         127972   287            325            33509          9856           83995          1.1290444e-11
       250   1318.7464         128786   278            318            34018          10112          84060          1.1434295e-11
       251   1333.6676         129648   275            310            34559          10397          84107          1.1597697e-11
       252   1348.6312         130499   265            303            35044          10735          84152          1.17263e-11  
       253   1363.6505         131130   255            297            35329          11042          84207          1.1820888e-11
       254   1378.7599         131875   249            290            35724          11355          84257          1.1940303e-11
       255   1393.8676         132595   243            284            36092          11672          84304          1.2035608e-11
       256   1409.0215         133290   237            279            36435          11989          84350          1.2114416e-11
       257   1424.2379         134026   231            271            36852          12281          84391          1.2188551e-11
       258   1439.5001         134610   225            262            37146          12551          84426          1.2247364e-11
       259   1454.819          135245   211            255            37512          12812          84455          1.2308495e-11
       260   1470.5764         135883   204            243            37864          13085          84487          1.2373625e-11
       261   1486.0272         136454   200            234            38169          13319          84532          1.2400223e-11
       262   1501.5292         137032   191            223            38478          13579          84561          1.242807e-11 
       263   1517.1232         137683   181            215            38861          13831          84595          1.2463843e-11
       264   1532.758          138210   175            204            39105          14105          84621          1.2506932e-11
       265   1548.4786         138670   169            197            39285          14363          84656          1.2505763e-11
       266   1564.323          139232   160            189            39567          14629          84687          1.2534301e-11
       267   1580.1165         139719   155            181            39766          14905          84712          1.2507327e-11
       268   1595.9144         140167   145            170            39902          15213          84737          1.2513627e-11
       269   1611.7717         140667   135            165            40081          15519          84767          1.2512657e-11
       270   1628.0229         141104   124            158            40147          15877          84798          1.2501581e-11
       271   1644.0603         141579   115            149            40205          16274          84836          1.2499179e-11
       272   1660.1309         141994   111            140            40227          16654          84862          1.2499209e-11
       273   1676.2296         142488   107            134            40335          17024          84888          1.2478486e-11
       274   1692.4187         142946   104            130            40397          17396          84919          1.2487785e-11
       275   1708.6729         143347   97             121            40371          17806          84952          1.2451084e-11
       276   1724.9671         143810   90             114            40445          18183          84978          1.2453051e-11
       277   1741.2768         144205   84             111            40460          18550          85000          1.2448804e-11
       278   1757.6405         144588   79             99             40479          18897          85034          1.2431262e-11
       279   1774.0396         144959   76             94             40495          19236          85058          1.2406981e-11
       280   1790.7893         145471   70             83             40625          19600          85093          1.2394494e-11
       281   1807.2954         145947   67             78             40732          19948          85122          1.2415294e-11
       282   1823.8551         146331   63             66             40732          20323          85147          1.2410481e-11
       283   1840.4702         146685   58             62             40722          20670          85173          1.2396575e-11
       284   1857.1198         147118   53             60             40817          20987          85201          1.2376117e-11
       285   1873.7803         147523   50             58             40871          21312          85232          1.2370506e-11
       286   1890.5234         147971   46             54             40943          21665          85263          1.2379549e-11
       287   1907.3249         148334   43             49             40961          21992          85289          1.2371194e-11
       288   1924.1405         148702   41             47             40949          22356          85309          1.2357322e-11
       289   1940.9088         149129   36             46             41009          22698          85340          1.2346215e-11
       290   1958.1344         149567   36             44             41069          23053          85365          1.2356722e-11
       291   1975.1846         149862   34             43             41028          23368          85389          1.2318167e-11
       292   1992.2537         150248   31             43             41041          23717          85416          1.2292278e-11
       293   2009.353          150630   30             43             41068          24043          85446          1.2300148e-11
       294   2026.4895         151034   30             41             41091          24400          85472          1.2323423e-11
       295   2043.7467         151490   29             38             41154          24775          85494          1.2307015e-11
       296   2061.0394         151893   26             36             41177          25133          85521          1.2324688e-11
       297   2078.3948         152225   25             35             41105          25514          85546          1.2302531e-11
       298   2095.8096         152577   22             35             41075          25876          85569          1.2290894e-11
       299   2113.259          152861   22             35             40957          26251          85596          1.2275708e-11
       300   2131.1112         153289   22             33             40950          26668          85616          1.2279454e-11
       301   2148.6126         153674   21             32             40927          27048          85646          1.2283863e-11
       302   2166.1286         154128   20             32             40962          27448          85666          1.2288985e-11
       303   2183.6958         154524   20             32             40907          27870          85695          1.2301762e-11
       304   2201.3187         154846   20             32             40809          28268          85717          1.2304656e-11
       305   2218.9988         155153   20             32             40621          28735          85745          1.2279239e-11
       306   2236.6688         155558   18             31             40540          29203          85766          1.230942e-11 
       307   2254.4745         155936   18             31             40427          29668          85792          1.2298785e-11
       308   2272.2885         156366   18             30             40369          30133          85816          1.2303875e-11
       309   2290.1089         156597   18             30             40125          30586          85838          1.2302686e-11
       310   2308.3346         156918   18             29             39919          31089          85863          1.2298225e-11
       311   2326.291          157313   18             29             39764          31615          85887          1.2305876e-11
       312   2344.3827         157752   18             28             39696          32100          85910          1.2295974e-11
       313   2362.4732         158040   18             27             39439          32624          85932          1.230082e-11 
       314   2380.6458         158369   18             26             39260          33108          85957          1.2320096e-11
       315   2398.8036         158694   18             26             39050          33621          85979          1.2321329e-11
       316   2417.0264         159097   18             26             38896          34153          86004          1.2331993e-11
       317   2435.1803         159406   18             26             38690          34648          86024          1.232351e-11 
       318   2453.5136         159826   18             25             38608          35124          86051          1.2332808e-11
       319   2471.7869         160180   18             25             38441          35627          86069          1.2358566e-11
       320   2490.4801         160454   18             25             38229          36084          86098          1.2350687e-11
Loop time of 2490.48 on 16 procs for 320 steps with 160454 atoms

98.3% CPU use with 16 MPI tasks x 1 OpenMP threads

MPI task timing breakdown:
Section |  min time  |  avg time  |  max time  |%varavg| %total
---------------------------------------------------------------
Pair    | 617.98     | 691.1      | 842.09     | 227.8 | 27.75
Neigh   | 566.94     | 660.05     | 903.06     | 331.1 | 26.50
Comm    | 220.76     | 249.04     | 294.91     | 154.5 | 10.00
Output  | 13.455     | 13.455     | 13.456     |   0.0 |  0.54
Modify  | 445.31     | 864.9      | 1048.7     | 537.5 | 34.73
Other   |            | 11.94      |            |       |  0.48

Nlocal:        10028.4 ave       15686 max        8496 min
Histogram: 8 2 0 4 1 0 0 0 0 1
Nghost:        7787.31 ave        9798 max        6601 min
Histogram: 2 3 2 1 4 1 2 0 0 1
Neighs:        97682.3 ave      109701 max       90617 min
Histogram: 4 2 2 2 1 2 0 1 0 2

Total # of neighbors = 1562917
Ave neighs/atom = 9.7405923
Neighbor list builds = 28125
Dangerous builds = 27805

Total wall time: 0:42:09
