LAMMPS (23 Jun 2022 - Update 4)
  using 1 OpenMP thread(s) per MPI task
package omp 0
using multi-threaded neighbor list subroutines
#-----------------------------------------------------------------------------#
#                NUFEB Simulation: Heterotrophic Biofilm Growth               #
#-----------------------------------------------------------------------------#


#-----------------------------System Settings---------------------------------#

units si                                    # using si units (m, s, kg)
atom_style      coccus                      # using nufeb coccus atom style
atom_modify     map array sort 10 0         # map array - find atoms using indices
		                            # sort every 10

boundary        pp pp ff                    # periodic boundaries in x and y
                                            # fixed boundary in z

newton          off                         # forces between local and ghost
                                            # atoms are computed in each
					     # processor without communication

processors      * * 1                       # processor grid

comm_modify     vel yes                     # communicate velocities for ghost atoms

read_data       atom_ch.in	             # read atom.in file which defines domain size
Reading data file ...
  orthogonal box = (0 0 0) to (6e-05 6e-05 6e-05)
  4 by 4 by 1 MPI processor grid
  reading atoms ...
  150 atoms
  read_data CPU = 0.024 seconds
                                            # and initial atoms


#--------------------Microbes and Functional Groups-------------------------#

group           CROSS1   type 1               # assign type 1,2 atoms to CROSS group
50 atoms in group CROSS1
group           CROSS2   type 2
50 atoms in group CROSS2
group		CHEATER  type 3
50 atoms in group CHEATER
group           dead     type 4
0 atoms in group dead
group		EPS	 type 5
0 atoms in group EPS

neighbor        5e-7 bin                   # setting neighbour skin distance and style

neigh_modify    check yes                  # rebuild neighbour list if any atom
                                           # had moved more than half the skin distance


#--------------------------Mesh Grid and Substrates--------------------------#

# defining grid sytle, substrate names, and grid size
grid_style      nufeb/chemostat 3 sub metab1 metab2 5e-6

# set diffusion boundary conditions and initial concentrations (liquid:kg/m3)
grid_modify     set sub      pp pp nd  1.8e-4
No /omp style for force computation currently active
grid_modify     set metab1   pp pp nd  1e-4
No /omp style for force computation currently active
grid_modify     set metab2   pp pp nd  1e-4
No /omp style for force computation currently active


#--------------------------Biological Processes-------------------------------#

# heterotrophs growth
fix growth_cross1 CROSS1 nufeb/growth/cross1 sub 3.5e-5 metab2 4e-3 metab1 growth 0.009 yield 0.6 decay 2.6e-6 metab1_exp 20 epsyield 0.12 epsdens 30

fix growth_cross2 CROSS2 nufeb/growth/cross2 sub 3.5e-5 metab1 4e-3 metab2 growth 0.009 yield 0.6 decay 2.6e-6 metab2_exp 20 epsyield 0.12 epsdens 30

fix growth_cheater CHEATER nufeb/growth/cheater sub 3.5e-5 metab1 1e-3 metab2 1e-3 growth 0.009 yield 0.6 decay 2.6e-6

# heterotrophs division, division diameter: 1.36e-6
fix div1 CROSS1 nufeb/division/coccus 1.36e-6 128
fix div2 CROSS2 nufeb/division/coccus 1.36e-6 206
fix div3 CHEATER nufeb/division/coccus 1.36e-6 334

fix death1 CROSS1 nufeb/death/diameter dead 5.43e-7
fix death2 CROSS2 nufeb/death/diameter dead 5.43e-7
fix death3 CHEATER nufeb/death/diameter dead 5.43e-7

# EPS secretion from heterotrophs
fix eps1 CROSS1 nufeb/eps_secretion 5 EPS 1.1 30 512
fix eps2 CROSS2 nufeb/eps_secretion 5 EPS 1.1 30 740

#---------------------------Physical Processes--------------------------------#

pair_style  gran/hooke/history 1e-4 NULL 1e-5 NULL 0.0 0    # pairwise interaction
pair_coeff  * *                                             # between atoms

# pairwise interaction between z-wall and atoms
fix wall all wall/gran hooke/history 1e-3 NULL 1e-4 NULL 0 0 zplane 0.0 1e-04

fix vis all viscous 1e-5                                    # viscous damping force

fix grav all gravity 9.81 vector 0.0 0.0 -1.0

fix nve all nve/limit 1e-7                                  # NVE integration with
                                                            # maximum distance limit


#---------------------------Post-Physical Processes---------------------------#

fix coeff_sub all nufeb/diffusion_coeff sub ratio 0.8       # defining diffusion coeff in the biofilm
fix coeff_metab1 all nufeb/diffusion_coeff metab1 ratio 0.8    # region is 80% of the value in liquid
fix coeff_metab2 all nufeb/diffusion_coeff metab2 ratio 0.8

#---------------------------Chemical Processes---------------------------------#

fix diff_sub all nufeb/diffusion_reaction sub 1e-9        # diffusion reaction for updating
fix diff_metab1 all nufeb/diffusion_reaction metab1 4e-9     # distribusion of substrate concentration
fix diff_metab2 all nufeb/diffusion_reaction metab2 4e-9

#--------------------------Computations and Outputs----------------------------#

variable mass equal "mass(all)"                             # total mass
variable ncross1 equal "count(CROSS1)"                      # total # of CROSS1
variable ncross2 equal "count(CROSS2)"                      # total # of CROSS2
variable ncheater equal "count(CHEATER)"
variable ndead equal "count(dead)"
variable neps equal "count(EPS)"

shell mkdir vtk_EPS_ch                                            # dump vtk files to /vtk folder
dump du1 all vtk 10 vtk_EPS_ch/dump*.vtu id type diameter         # require build NUFEB with vtk option
dump du2 all grid/vtk 10 vtk_EPS_ch/dump_%_*.vti con rea den gro

#dump du3 all movie 10 movie.avi type diameter view 80 60    # dump video
#dump_modify du3 acolor 1 blue acolor 2 lightgrey framerate 10


                                                            # dump hdf5 files to /hdf5 folder
#shell mkdir hdf5                                           # require build NUFEB with hdf5 option
#dump du3 all nufeb/hdf5 10 dump.h5 id type x y z vx vy vz fx fy fz radius conc reac

thermo_style custom step cpu atoms v_ncross1 v_ncross2 v_ncheater v_ndead v_neps v_mass     # screen and log outputs
thermo 1
thermo_modify   lost ignore

#-----------------------------------Run----------------------------------------#

# issue run command, define timesteps for physical (pairdt) and chemical (diffdt) processes
run_style nufeb diffdt 1e-4 difftol 1e-6 pairdt 1e-2 pairtol 1 pairmax 1000 diffmax 5000

timestep 12000                                               # define biological timesteps (1000s)

run 320                                                    # growing biofilm for 900x1000s
Generated 0 of 6 mixed pair_coeff terms from geometric mixing rule
Last active /omp style is pair_style gran/hooke/history/omp
Neighbor list info ...
  update every 1 steps, delay 10 steps, check yes
  max neighbors/atom: 2000, page size: 100000
  master list distance cutoff = 2.49e-06
  ghost atom cutoff = 2.49e-06
  binsize = 1.245e-06, bins = 49 49 49
  1 neighbor lists, perpetual/occasional/extra = 1 0 0
  (1) pair gran/hooke/history/omp, perpetual
      attributes: half, newton off, size, history, omp
      pair build: half/size/bin/newtoff/omp
      stencil: full/bin/3d
      bin: standard
Per MPI rank memory allocation (min/avg/max) = 11.02 | 11.02 | 11.02 Mbytes
   Step          CPU          Atoms      v_ncross1      v_ncross2      v_ncheater      v_ndead         v_neps         v_mass    
         0   0                    150   50             50             50             0              0              1.3295396e-13
         1   0.38675603           432   90             85             86             0              171            1.726679e-13 
         2   0.77210356           795   120            126            136            0              413            1.9556704e-13
         3   1.1052178           1115   130            140            182            0              663            2.1523705e-13
         4   1.4197899           1430   140            148            204            0              938            2.3354345e-13
         5   1.6432978           1750   144            157            222            0              1227           2.5155884e-13
         6   1.8391297           2070   148            164            244            0              1514           2.6918769e-13
         7   2.0220894           2419   155            174            269            0              1821           2.8687534e-13
         8   2.1761939           2755   163            178            287            0              2127           3.0397441e-13
         9   2.3313911           3108   171            193            295            0              2449           3.2060765e-13
        10   2.5027466           3513   180            203            328            0              2802           3.371677e-13 
        11   2.6146524           3894   183            213            347            0              3151           3.5271483e-13
        12   2.7255992           4277   187            218            368            0              3504           3.6798611e-13
        13   2.8452221           4662   191            222            384            0              3865           3.8276801e-13
        14   2.9466653           5057   198            229            399            0              4231           3.9717069e-13
        15   3.0438499           5452   203            233            419            0              4597           4.1123629e-13
        16   3.1432011           5840   205            239            429            0              4967           4.248817e-13 
        17   3.2490112           6230   209            243            446            0              5332           4.3811311e-13
        18   3.3710693           6621   213            246            459            0              5703           4.5097973e-13
        19   3.4616131           7006   215            251            477            0              6063           4.6359366e-13
        20   3.6135759           7414   224            254            500            0              6436           4.759335e-13 
        21   3.7045031           7787   229            254            515            0              6789           4.8792516e-13
        22   3.7956541           8193   233            258            533            0              7169           4.9967179e-13
        23   3.9079471           8572   236            261            547            0              7528           5.1117035e-13
        24   4.0161127           8964   242            266            563            0              7893           5.223191e-13 
        25   4.1454393           9367   245            272            582            0              8268           5.3303401e-13
        26   4.2597112           9765   250            275            594            0              8646           5.4339091e-13
        27   4.3605846          10181   251            281            616            0              9033           5.5380379e-13
        28   4.4616625          10572   257            283            632            0              9400           5.6359922e-13
        29   4.611453           10970   261            285            649            0              9775           5.732109e-13 
        30   24.615557          11355   264            286            662            0              10143          5.8251636e-13
        31   24.733853          11761   270            290            674            0              10527          5.9168742e-13
        32   24.885758          12167   274            294            691            0              10908          6.0063031e-13
        33   25.021661          12557   276            296            703            0              11282          6.094066e-13 
        34   25.196513          12948   277            298            715            0              11658          6.1816978e-13
        35   25.373513          13328   282            300            727            0              12019          6.2704803e-13
        36   25.595658          13726   285            303            746            0              12392          6.3610147e-13
        37   25.845665          14128   288            303            759            0              12778          6.4513969e-13
        38   26.115279          14515   291            305            776            0              13143          6.5443302e-13
        39   26.420333          14938   294            305            798            0              13541          6.6389031e-13
        40   50.740654          15316   296            307            819            0              13894          6.7307013e-13
        41   51.120271          15731   296            310            837            0              14288          6.8267238e-13
        42   51.551464          16104   300            310            856            0              14638          6.9176773e-13
        43   51.980286          16518   302            316            876            0              15024          7.0099746e-13
        44   52.600096          16907   304            316            896            0              15391          7.1028138e-13
        45   53.542418          17302   306            317            913            0              15766          7.1929429e-13
        46   54.422329          17691   308            317            932            0              16134          7.2813768e-13
        47   55.399249          18078   310            317            960            0              16491          7.3714423e-13
        48   56.400409          18480   312            319            987            0              16862          7.4616199e-13
        49   57.427343          18879   315            319            1008           0              17237          7.5520798e-13
        50   58.528857          19269   317            320            1034           0              17598          7.6448817e-13
        51   59.610601          19674   320            322            1057           0              17975          7.7368418e-13
        52   60.731539          20076   324            324            1079           0              18349          7.8280636e-13
        53   61.871115          20475   328            325            1102           0              18720          7.9197721e-13
        54   63.058209          20877   332            328            1123           0              19094          8.0149677e-13
        55   64.228126          21280   333            329            1156           0              19462          8.1123239e-13
        56   65.467644          21683   336            330            1186           1              19830          8.2114025e-13
        57   66.719262          22081   338            332            1211           2              20198          8.3131759e-13
        58   68.016909          22497   342            333            1238           2              20582          8.4188092e-13
        59   69.308451          22904   344            335            1276           3              20946          8.5278384e-13
        60   70.749935          23322   345            337            1306           4              21330          8.6388025e-13
        61   72.05102           23715   346            339            1337           5              21688          8.7544057e-13
        62   73.416897          24118   347            339            1370           8              22054          8.8672984e-13
        63   74.828873          24519   347            339            1396           10             22427          8.9828984e-13
        64   76.243603          24919   350            340            1434           13             22782          9.1012151e-13
        65   77.680408          25312   350            341            1461           16             23144          9.2221698e-13
        66   79.165678          25729   352            344            1496           20             23517          9.3441538e-13
        67   80.703915          26129   352            347            1531           24             23875          9.4666123e-13
        68   82.210504          26527   352            348            1560           27             24240          9.5943818e-13
        69   83.795794          26939   352            348            1598           32             24609          9.7224359e-13
        70   85.489198          27330   352            348            1647           37             24946          9.8537859e-13
        71   87.121334          27760   352            350            1680           45             25333          9.992769e-13 
        72   88.753322          28132   353            351            1719           49             25660          1.0130135e-12
        73   90.37695           28553   356            352            1748           58             26039          1.02697e-12  
        74   92.009855          28928   357            353            1781           63             26374          1.040419e-12 
        75   93.687016          29357   357            353            1830           66             26751          1.05367e-12  
        76   95.416483          29747   359            353            1873           74             27088          1.0667017e-12
        77   97.143701          30162   359            354            1912           81             27456          1.079818e-12 
        78   98.912514          30554   361            354            1949           87             27803          1.0926326e-12
        79   100.78707          30977   363            355            2001           94             28164          1.1053501e-12
        80   102.84328          31370   363            355            2034           104            28514          1.1185504e-12
        81   104.87651          31780   364            355            2076           114            28871          1.1328155e-12
        82   106.91222          32164   365            355            2104           130            29210          1.1485614e-12
        83   109.01261          32569   365            355            2152           138            29559          1.1647277e-12
        84   111.14581          32970   365            355            2208           145            29897          1.1821997e-12
        85   113.29371          33378   365            355            2254           158            30246          1.200656e-12 
        86   115.45528          33767   366            355            2316           169            30561          1.2193428e-12
        87   117.63552          34164   367            355            2359           188            30895          1.2383669e-12
        88   119.83243          34562   367            356            2411           200            31228          1.2574574e-12
        89   122.03909          34974   367            356            2464           222            31565          1.2766924e-12
        90   124.65979          35395   368            356            2528           237            31906          1.295587e-12 
        91   126.98785          35790   369            357            2594           250            32220          1.3145169e-12
        92   129.34539          36178   371            358            2635           264            32550          1.3336967e-12
        93   131.79759          36591   371            358            2711           274            32877          1.3528773e-12
        94   134.26072          36999   371            358            2782           288            33200          1.3727313e-12
        95   136.81042          37399   371            359            2848           307            33514          1.3926127e-12
        96   139.41144          37823   372            359            2915           320            33857          1.4132305e-12
        97   142.06419          38206   373            359            2983           332            34159          1.4340378e-12
        98   144.76387          38595   373            359            3038           353            34472          1.4557143e-12
        99   147.48698          39004   374            359            3119           365            34787          1.4777291e-12
       100   169.08244          39400   374            360            3190           373            35103          1.5000087e-12
       101   171.9268           39810   374            360            3267           390            35419          1.5221962e-12
       102   174.80749          40212   374            360            3344           400            35734          1.5449165e-12
       103   177.7174           40626   374            360            3436           407            36049          1.5674375e-12
       104   180.71825          41020   375            360            3522           413            36350          1.5897964e-12
       105   183.7718           41431   375            360            3612           429            36655          1.6128538e-12
       106   186.86371          41834   375            360            3696           440            36963          1.636071e-12 
       107   190.01571          42222   375            360            3779           450            37258          1.6596228e-12
       108   193.21849          42638   375            360            3866           461            37576          1.6840825e-12
       109   196.46668          43051   375            360            3968           472            37876          1.7090654e-12
       110   199.91003          43457   375            360            4062           479            38181          1.7347582e-12
       111   203.2773           43867   376            360            4162           496            38473          1.7607663e-12
       112   206.68595          44279   376            360            4253           509            38781          1.7869084e-12
       113   210.1697           44666   376            360            4344           523            39063          1.8129549e-12
       114   213.72702          45095   376            360            4453           532            39374          1.8390157e-12
       115   217.32263          45490   376            360            4559           538            39657          1.8650358e-12
       116   220.99921          45908   376            360            4671           543            39958          1.8910716e-12
       117   224.73323          46295   376            360            4768           555            40236          1.9175641e-12
       118   228.5094           46702   376            360            4862           576            40528          1.9449389e-12
       119   232.37803          47115   376            360            4977           589            40813          1.9729858e-12
       120   236.38504          47526   376            360            5082           606            41102          2.0024818e-12
       121   240.31643          47947   376            360            5195           623            41393          2.0328011e-12
       122   244.32704          48356   376            360            5303           646            41671          2.0633708e-12
       123   248.39838          48760   376            360            5414           666            41944          2.0945405e-12
       124   252.51962          49184   376            360            5526           694            42228          2.1259717e-12
       125   256.71674          49595   376            360            5633           718            42508          2.1576747e-12
       126   261.00391          50022   376            360            5764           740            42782          2.1895594e-12
       127   265.36438          50418   376            360            5863           762            43057          2.2209294e-12
       128   269.80102          50864   376            360            5976           803            43349          2.2527066e-12
       129   274.30173          51267   376            360            6084           840            43607          2.2847838e-12
       130   279.01574          51700   376            360            6185           878            43901          2.3168812e-12
       131   283.67077          52128   376            360            6316           900            44176          2.3495121e-12
       132   288.39866          52563   376            361            6454           932            44440          2.3832275e-12
       133   293.2026           52999   376            361            6549           971            44742          2.4179838e-12
       134   298.07162          53404   376            361            6660           1015           44992          2.4537326e-12
       135   303.02203          53845   376            361            6784           1064           45260          2.4902711e-12
       136   308.08576          54301   376            361            6899           1102           45563          2.5272434e-12
       137   313.22304          54707   376            361            6994           1159           45817          2.5645895e-12
       138   318.47223          55153   376            362            7115           1216           46084          2.6026591e-12
       139   323.79666          55603   376            362            7218           1276           46371          2.6411764e-12
       140   329.37115          56030   376            362            7313           1340           46639          2.6801823e-12
       141   334.91734          56475   376            362            7449           1394           46894          2.7202988e-12
       142   340.53081          56951   377            362            7579           1453           47180          2.7613833e-12
       143   346.25004          57386   377            362            7701           1505           47441          2.803191e-12 
       144   352.06165          57826   377            361            7816           1565           47707          2.8458741e-12
       145   357.97141          58300   377            361            7956           1629           47977          2.8900136e-12
       146   364.01582          58782   377            361            8091           1696           48257          2.9358787e-12
       147   370.14026          59248   376            362            8240           1753           48517          2.9831681e-12
       148   376.38578          59739   373            362            8391           1825           48788          3.032877e-12 
       149   382.74598          60206   373            363            8539           1885           49046          3.0837894e-12
       150   389.35425          60681   373            363            8696           1947           49302          3.1362331e-12
       151   395.90001          61199   372            363            8874           2013           49577          3.1898921e-12
       152   402.5527           61697   372            363            9045           2080           49837          3.2444715e-12
       153   409.30693          62196   372            363            9217           2149           50095          3.3013695e-12
       154   416.15919          62700   372            362            9412           2194           50360          3.3608628e-12
       155   423.12236          63234   372            362            9646           2236           50618          3.4233961e-12
       156   430.23348          63748   372            362            9868           2292           50854          3.4885837e-12
       157   437.46954          64321   372            362            10105          2340           51142          3.5578841e-12
       158   444.79377          64862   372            362            10320          2414           51394          3.6298174e-12
       159   452.25195          65407   372            362            10556          2481           51636          3.7027879e-12
       160   460.02926          65971   372            361            10783          2549           51906          3.7778367e-12
       161   467.73711          66542   371            361            11062          2603           52145          3.8565998e-12
       162   475.64224          67134   371            361            11327          2667           52408          3.940166e-12 
       163   483.62273          67742   371            360            11605          2730           52676          4.0300866e-12
       164   491.73408          68338   371            360            11907          2794           52906          4.1290414e-12
       165   500.02394          68999   370            360            12252          2855           53162          4.2377337e-12
       166   508.47247          69682   370            360            12598          2924           53430          4.3564427e-12
       167   517.079            70345   370            361            12952          2984           53678          4.4809492e-12
       168   525.85739          71059   370            361            13369          3043           53916          4.6118886e-12
       169   534.83479          71789   368            359            13747          3126           54189          4.7463274e-12
       170   544.1692           72474   368            359            14112          3204           54431          4.8811393e-12
       171   553.52561          73191   368            359            14519          3275           54670          5.0147481e-12
       172   563.04414          73933   367            359            14929          3352           54926          5.1419997e-12
       173   572.76041          74729   367            359            15383          3432           55188          5.2784873e-12
       174   582.61998          75405   367            358            15777          3498           55405          5.4070874e-12
       175   592.65264          76193   367            357            16244          3565           55660          5.5484477e-12
       176   602.81306          76986   367            357            16714          3639           55909          5.6976842e-12
       177   613.10563          77765   367            357            17185          3728           56128          5.853353e-12 
       178   623.50594          78566   367            356            17653          3819           56371          6.0095806e-12
       179   634.12155          79407   367            356            18147          3910           56627          6.1649551e-12
       180   645.10244          80218   367            354            18650          4020           56827          6.3156018e-12
       181   656.04747          81008   367            354            19079          4136           57072          6.4628743e-12
       182   667.1343           81851   367            354            19588          4232           57310          6.6210791e-12
       183   678.37995          82718   367            353            20142          4328           57528          6.7869562e-12
       184   689.76358          83566   366            353            20660          4440           57747          6.9572501e-12
       185   701.27101          84442   365            350            21223          4539           57965          7.1299059e-12
       186   712.91329          85333   365            349            21753          4673           58193          7.3048035e-12
       187   724.63337          86206   365            349            22295          4813           58384          7.4770533e-12
       188   736.44873          87064   364            348            22799          4950           58603          7.6647117e-12
       189   748.35704          87982   364            347            23365          5103           58803          7.84104e-12  
       190   760.59224          88959   363            343            23980          5256           59017          8.0261169e-12
       191   772.66838          89852   363            342            24553          5414           59180          8.2323295e-12
       192   784.82569          90820   363            341            25177          5574           59365          8.4535578e-12
       193   797.06915          91786   362            341            25809          5736           59538          8.6522349e-12
       194   809.37916          92740   361            340            26406          5918           59715          8.8500088e-12
       195   821.7649           93715   361            336            27074          6092           59852          9.0548929e-12
       196   834.27008          94661   361            335            27655          6289           60021          9.2719412e-12
       197   846.86073          95592   361            332            28232          6514           60153          9.4641686e-12
       198   859.53023          96583   361            329            28848          6751           60294          9.6666184e-12
       199   872.29901          97489   358            326            29395          6983           60427          9.8511772e-12
       200   885.38372          98429   357            325            29973          7230           60544          1.0055545e-11
       201   898.30238          99431   355            321            30595          7507           60653          1.0263476e-11
       202   911.34479         100333   355            319            31154          7749           60756          1.0467672e-11
       203   924.43769         101245   354            316            31718          7984           60873          1.0638275e-11
       204   937.58569         102187   352            316            32326          8233           60960          1.0822613e-11
       205   950.80556         103006   351            312            32782          8511           61050          1.0976945e-11
       206   964.12745         103824   351            309            33296          8741           61127          1.1131483e-11
       207   977.51691         104611   349            307            33763          9000           61192          1.1261691e-11
       208   990.98885         105368   346            301            34222          9243           61256          1.1377375e-11
       209   1004.5329         106190   344            297            34725          9492           61332          1.1503288e-11
       210   1018.3516         106906   341            291            35123          9747           61404          1.1604354e-11
       211   1032.0172         107569   339            283            35485          9982           61480          1.1717187e-11
       212   1045.7873         108272   336            277            35894          10224          61541          1.1783973e-11
       213   1059.6752         108976   330            270            36342          10452          61582          1.1858825e-11
       214   1073.5895         109605   322            266            36692          10690          61635          1.1929117e-11
       215   1087.5737         110213   319            262            37010          10941          61681          1.1976511e-11
       216   1101.6157         110835   313            256            37355          11198          61713          1.2040578e-11
       217   1115.7334         111401   310            251            37589          11488          61763          1.2099162e-11
       218   1129.9646         111983   304            245            37845          11785          61804          1.2135534e-11
       219   1144.2257         112565   300            238            38087          12092          61848          1.2176459e-11
       220   1158.8462         113120   294            226            38299          12410          61891          1.2189087e-11
       221   1173.2626         113653   285            217            38471          12757          61923          1.2213238e-11
       222   1187.7232         114103   273            211            38564          13091          61964          1.221406e-11 
       223   1202.2511         114636   268            201            38760          13406          62001          1.2233481e-11
       224   1216.7963         115053   263            191            38838          13729          62032          1.2240028e-11
       225   1231.3776         115629   250            183            39075          14042          62079          1.2258451e-11
       226   1246.0222         116151   238            172            39231          14391          62119          1.2274306e-11
       227   1260.7419         116597   227            164            39307          14745          62154          1.2251041e-11
       228   1275.5054         117002   219            154            39368          15078          62183          1.2241806e-11
       229   1290.3138         117433   207            146            39452          15412          62216          1.2238158e-11
       230   1305.4731         117873   194            134            39578          15724          62243          1.2224513e-11
       231   1320.4613         118330   182            127            39708          16038          62275          1.2246828e-11
       232   1335.4286         118782   170            121            39826          16364          62301          1.222573e-11 
       233   1350.5109         119218   162            111            39938          16673          62334          1.2209366e-11
       234   1365.5837         119627   151            103            40038          16962          62373          1.2207769e-11
       235   1380.6976         120015   142            97             40051          17320          62405          1.2202403e-11
       236   1395.8969         120465   136            89             40197          17600          62443          1.2197908e-11
       237   1411.1631         120931   129            84             40313          17936          62469          1.2194012e-11
       238   1426.5396         121358   121            78             40389          18266          62504          1.2193941e-11
       239   1441.9539         121690   114            70             40360          18617          62529          1.2155356e-11
       240   1457.7611         122150   103            65             40450          18967          62565          1.2167879e-11
       241   1473.2601         122503   96             58             40459          19296          62594          1.2156652e-11
       242   1488.8182         122904   89             54             40486          19650          62625          1.215461e-11 
       243   1504.4582         123343   82             51             40550          20005          62655          1.214852e-11 
       244   1520.1713         123769   75             50             40620          20340          62684          1.2133351e-11
       245   1535.8918         124097   69             44             40589          20685          62710          1.2115005e-11
       246   1551.7145         124494   64             41             40607          21041          62741          1.2129476e-11
       247   1567.618          124920   60             40             40690          21360          62770          1.2111107e-11
       248   1583.5813         125292   55             36             40716          21692          62793          1.2119236e-11
       249   1599.5986         125724   48             34             40847          21974          62821          1.2117369e-11
       250   1615.9883         126062   44             32             40829          22310          62847          1.2113948e-11
       251   1632.1975         126385   43             31             40799          22642          62870          1.2097669e-11
       252   1648.4025         126780   41             31             40817          22993          62898          1.2081442e-11
       253   1664.6962         127217   38             30             40885          23342          62922          1.2100857e-11
       254   1680.9902         127587   38             29             40882          23686          62952          1.2101009e-11
       255   1697.4249         127944   37             28             40827          24075          62977          1.2087658e-11
       256   1713.9666         128277   37             28             40730          24477          63005          1.2084861e-11
       257   1730.4582         128702   32             28             40714          24902          63026          1.2095206e-11
       258   1747.0256         129117   31             28             40701          25302          63055          1.2103948e-11
       259   1763.642          129508   27             28             40659          25716          63078          1.2111298e-11
       260   1780.6294         129756   25             27             40428          26176          63100          1.2096396e-11
       261   1797.4256         130144   24             24             40368          26607          63121          1.2095909e-11
       262   1814.3067         130492   23             24             40233          27067          63145          1.2098043e-11
       263   1831.1977         130860   23             24             40157          27490          63166          1.2097143e-11
       264   1848.123          131275   22             24             40077          27963          63189          1.2114396e-11
       265   1865.1259         131628   22             24             39939          28431          63212          1.211822e-11 
       266   1882.1748         131909   21             23             39727          28906          63232          1.2103925e-11
       267   1899.2817         132238   20             23             39573          29369          63253          1.2097317e-11
       268   1916.47           132624   20             22             39467          29841          63274          1.2083474e-11
       269   1933.7217         132946   20             22             39289          30321          63294          1.2096378e-11
       270   1951.3397         133313   20             22             39153          30803          63315          1.2101781e-11
       271   1968.7526         133622   19             22             38935          31310          63336          1.2095492e-11
       272   1986.1623         134025   19             22             38836          31794          63354          1.2120828e-11
       273   2003.6564         134381   18             22             38672          32290          63379          1.2132603e-11
       274   2021.1932         134724   18             22             38527          32760          63397          1.2124161e-11
       275   2038.7239         135073   18             22             38445          33167          63421          1.2144714e-11
       276   2056.2993         135345   18             22             38215          33652          63438          1.2146513e-11
       277   2073.8897         135743   18             22             38116          34127          63460          1.2169521e-11
       278   2091.5081         136125   18             22             37998          34607          63480          1.216314e-11 
       279   2109.2847         136469   18             22             37872          35055          63502          1.2185343e-11
       280   2127.406          136802   18             22             37698          35541          63523          1.2204167e-11
       281   2145.2483         137110   18             22             37558          35969          63543          1.2215405e-11
       282   2163.135          137381   18             22             37382          36396          63563          1.2201295e-11
       283   2181.0916         137790   18             22             37288          36878          63584          1.2224593e-11
       284   2199.2869         138154   18             22             37262          37245          63607          1.2219988e-11
       285   2217.3928         138487   18             22             37160          37660          63627          1.223528e-11 
       286   2235.5067         138750   18             22             36976          38085          63649          1.2250162e-11
       287   2253.5891         139119   18             22             36934          38474          63671          1.2272446e-11
       288   2271.8028         139422   18             22             36834          38856          63692          1.2262973e-11
       289   2290.1974         139762   18             22             36777          39232          63713          1.2259189e-11
       290   2309.2202         140117   18             22             36740          39603          63734          1.2267049e-11
       291   2327.5771         140504   18             22             36731          39976          63757          1.2316426e-11
       292   2346.054          140762   18             22             36616          40329          63777          1.2307304e-11
       293   2364.4443         141061   18             22             36525          40694          63802          1.2317652e-11
       294   2382.9529         141444   18             22             36551          41035          63818          1.2320271e-11
       295   2401.5396         141790   18             22             36495          41412          63843          1.2349155e-11
       296   2420.2094         142077   18             22             36392          41783          63862          1.2343593e-11
       297   2438.8928         142414   18             22             36363          42124          63887          1.2361271e-11
       298   2457.6454         142707   18             22             36295          42460          63912          1.2362077e-11
       299   2476.4707         143067   18             22             36303          42794          63930          1.2381153e-11
       300   2495.6768         143411   18             22             36272          43142          63957          1.2394591e-11
       301   2514.8441         143696   17             22             36223          43461          63973          1.2388325e-11
       302   2533.8732         144026   17             22             36183          43805          63999          1.2407726e-11
       303   2552.9627         144320   17             22             36123          44140          64018          1.2404566e-11
       304   2571.9821         144635   17             22             36104          44453          64039          1.2431463e-11
       305   2591.0511         145058   17             22             36173          44783          64063          1.2454759e-11
       306   2610.1811         145334   17             22             36114          45098          64083          1.2447923e-11
       307   2629.4052         145679   17             22             36114          45423          64103          1.2454223e-11
       308   2648.7246         145944   17             22             36006          45773          64126          1.2459305e-11
       309   2668.12           146263   17             22             35977          46100          64147          1.2481701e-11
       310   2687.8525         146627   17             22             36009          46411          64168          1.24869e-11  
       311   2707.2795         146960   17             22             35965          46767          64189          1.2496289e-11
       312   2726.7771         147312   17             22             35998          47067          64208          1.2511345e-11
       313   2746.3473         147542   17             22             35885          47387          64231          1.2514448e-11
       314   2766.0294         147867   17             22             35913          47664          64251          1.2519743e-11
       315   2785.7846         148168   17             22             35865          47989          64275          1.2529807e-11
       316   2805.5684         148586   17             22             35948          48303          64296          1.2549449e-11
       317   2825.4511         148867   17             22             35893          48619          64316          1.2554461e-11
       318   2845.3257         149172   17             22             35847          48949          64337          1.2551826e-11
       319   2865.2318         149486   17             22             35859          49231          64357          1.2568083e-11
       320   2885.608          149769   17             22             35804          49544          64382          1.2587368e-11
Loop time of 2885.61 on 16 procs for 320 steps with 149769 atoms

97.3% CPU use with 16 MPI tasks x 1 OpenMP threads

MPI task timing breakdown:
Section |  min time  |  avg time  |  max time  |%varavg| %total
---------------------------------------------------------------
Pair    | 731.02     | 829.71     | 1037.9     | 310.9 | 28.75
Neigh   | 467.22     | 562.58     | 869.15     | 529.5 | 19.50
Comm    | 306.81     | 371.19     | 431.93     | 233.3 | 12.86
Output  | 69.172     | 69.172     | 69.174     |   0.0 |  2.40
Modify  | 465.29     | 1039.1     | 1251.3     | 744.8 | 36.01
Other   |            | 13.86      |            |       |  0.48

Nlocal:        9360.56 ave       13897 max        7934 min
Histogram: 9 2 1 0 1 1 0 0 0 2
Nghost:        7316.88 ave       10037 max        6035 min
Histogram: 5 2 2 3 0 1 0 1 1 1
Neighs:        91287.9 ave      107374 max       84295 min
Histogram: 5 4 2 0 1 1 1 0 1 1

Total # of neighbors = 1460607
Ave neighs/atom = 9.7523987
Neighbor list builds = 27955
Dangerous builds = 27635

Total wall time: 0:48:36
