LAMMPS (23 Jun 2022 - Update 4)
  using 1 OpenMP thread(s) per MPI task
package omp 0
using multi-threaded neighbor list subroutines
#-----------------------------------------------------------------------------#
#                NUFEB Simulation: Heterotrophic Biofilm Growth               #
#-----------------------------------------------------------------------------#


#-----------------------------System Settings---------------------------------#

units si                                    # using si units (m, s, kg)
atom_style      coccus                      # using nufeb coccus atom style
atom_modify     map array sort 10 0         # map array - find atoms using indices
		                            # sort every 10

boundary        pp pp ff                    # periodic boundaries in x and y
                                            # fixed boundary in z

newton          off                         # forces between local and ghost
                                            # atoms are computed in each
					     # processor without communication

processors      * * 1                       # processor grid

comm_modify     vel yes                     # communicate velocities for ghost atoms

read_data       atom_ch.in	             # read atom.in file which defines domain size
Reading data file ...
  orthogonal box = (0 0 0) to (6e-05 6e-05 6e-05)
  4 by 4 by 1 MPI processor grid
  reading atoms ...
  150 atoms
  read_data CPU = 0.022 seconds
                                            # and initial atoms


#--------------------Microbes and Functional Groups-------------------------#

group           CROSS1   type 1               # assign type 1,2 atoms to CROSS group
50 atoms in group CROSS1
group           CROSS2   type 2
50 atoms in group CROSS2
group		CHEATER  type 3
50 atoms in group CHEATER
group           dead     type 4
0 atoms in group dead
group		EPS	 type 5
0 atoms in group EPS

neighbor        5e-7 bin                   # setting neighbour skin distance and style

neigh_modify    check yes                  # rebuild neighbour list if any atom
                                           # had moved more than half the skin distance


#--------------------------Mesh Grid and Substrates--------------------------#

# defining grid sytle, substrate names, and grid size
grid_style      nufeb/chemostat 3 sub metab1 metab2 5e-6

# set diffusion boundary conditions and initial concentrations (liquid:kg/m3)
grid_modify     set sub      pp pp nd  1.8e-4
No /omp style for force computation currently active
grid_modify     set metab1   pp pp nd  1e-4
No /omp style for force computation currently active
grid_modify     set metab2   pp pp nd  1e-4
No /omp style for force computation currently active


#--------------------------Biological Processes-------------------------------#

# heterotrophs growth
fix growth_cross1 CROSS1 nufeb/growth/cross1 sub 3.5e-5 metab2 4e-3 metab1 growth 0.009 yield 0.6 decay 2.6e-6 metab1_exp 20 epsyield 0.12 epsdens 30

fix growth_cross2 CROSS2 nufeb/growth/cross2 sub 3.5e-5 metab1 4e-3 metab2 growth 0.009 yield 0.6 decay 2.6e-6 metab2_exp 20 epsyield 0.12 epsdens 30

fix growth_cheater CHEATER nufeb/growth/cheater sub 3.5e-5 metab1 1e-3 metab2 1e-3 growth 0.009 yield 0.6 decay 2.6e-6

# heterotrophs division, division diameter: 1.36e-6
fix div1 CROSS1 nufeb/division/coccus 1.36e-6 152
fix div2 CROSS2 nufeb/division/coccus 1.36e-6 302
fix div3 CHEATER nufeb/division/coccus 1.36e-6 550

fix death1 CROSS1 nufeb/death/diameter dead 5.43e-7
fix death2 CROSS2 nufeb/death/diameter dead 5.43e-7
fix death3 CHEATER nufeb/death/diameter dead 5.43e-7

# EPS secretion from heterotrophs
fix eps1 CROSS1 nufeb/eps_secretion 5 EPS 1.1 30 896
fix eps2 CROSS2 nufeb/eps_secretion 5 EPS 1.1 30 1340

#---------------------------Physical Processes--------------------------------#

pair_style  gran/hooke/history 1e-4 NULL 1e-5 NULL 0.0 0    # pairwise interaction
pair_coeff  * *                                             # between atoms

# pairwise interaction between z-wall and atoms
fix wall all wall/gran hooke/history 1e-3 NULL 1e-4 NULL 0 0 zplane 0.0 1e-04

fix vis all viscous 1e-5                                    # viscous damping force

fix grav all gravity 9.81 vector 0.0 0.0 -1.0

fix nve all nve/limit 1e-7                                  # NVE integration with
                                                            # maximum distance limit


#---------------------------Post-Physical Processes---------------------------#

fix coeff_sub all nufeb/diffusion_coeff sub ratio 0.8       # defining diffusion coeff in the biofilm
fix coeff_metab1 all nufeb/diffusion_coeff metab1 ratio 0.8    # region is 80% of the value in liquid
fix coeff_metab2 all nufeb/diffusion_coeff metab2 ratio 0.8

#---------------------------Chemical Processes---------------------------------#

fix diff_sub all nufeb/diffusion_reaction sub 1e-9        # diffusion reaction for updating
fix diff_metab1 all nufeb/diffusion_reaction metab1 4e-9     # distribusion of substrate concentration
fix diff_metab2 all nufeb/diffusion_reaction metab2 4e-9

#--------------------------Computations and Outputs----------------------------#

variable mass equal "mass(all)"                             # total mass
variable ncross1 equal "count(CROSS1)"                      # total # of CROSS1
variable ncross2 equal "count(CROSS2)"                      # total # of CROSS2
variable ncheater equal "count(CHEATER)"
variable ndead equal "count(dead)"
variable neps equal "count(EPS)"

shell mkdir vtk_EPS_ch                                            # dump vtk files to /vtk folder
dump du1 all vtk 10 vtk_EPS_ch/dump*.vtu id type diameter         # require build NUFEB with vtk option
dump du2 all grid/vtk 10 vtk_EPS_ch/dump_%_*.vti con rea den gro

#dump du3 all movie 10 movie.avi type diameter view 80 60    # dump video
#dump_modify du3 acolor 1 blue acolor 2 lightgrey framerate 10


                                                            # dump hdf5 files to /hdf5 folder
#shell mkdir hdf5                                           # require build NUFEB with hdf5 option
#dump du3 all nufeb/hdf5 10 dump.h5 id type x y z vx vy vz fx fy fz radius conc reac

thermo_style custom step cpu atoms v_ncross1 v_ncross2 v_ncheater v_ndead v_neps v_mass     # screen and log outputs
thermo 1
thermo_modify   lost ignore

#-----------------------------------Run----------------------------------------#

# issue run command, define timesteps for physical (pairdt) and chemical (diffdt) processes
run_style nufeb diffdt 1e-4 difftol 1e-6 pairdt 1e-2 pairtol 1 pairmax 1000 diffmax 5000

timestep 12000                                               # define biological timesteps (1000s)

run 320                                                    # growing biofilm for 900x1000s
Generated 0 of 6 mixed pair_coeff terms from geometric mixing rule
Last active /omp style is pair_style gran/hooke/history/omp
Neighbor list info ...
  update every 1 steps, delay 10 steps, check yes
  max neighbors/atom: 2000, page size: 100000
  master list distance cutoff = 2.49e-06
  ghost atom cutoff = 2.49e-06
  binsize = 1.245e-06, bins = 49 49 49
  1 neighbor lists, perpetual/occasional/extra = 1 0 0
  (1) pair gran/hooke/history/omp, perpetual
      attributes: half, newton off, size, history, omp
      pair build: half/size/bin/newtoff/omp
      stencil: full/bin/3d
      bin: standard
Per MPI rank memory allocation (min/avg/max) = 11.02 | 11.02 | 11.02 Mbytes
   Step          CPU          Atoms      v_ncross1      v_ncross2      v_ncheater      v_ndead         v_neps         v_mass    
         0   0                    150   50             50             50             0              0              1.3295396e-13
         1   0.38191136           432   90             85             86             0              171            1.7275819e-13
         2   0.76075109           794   119            125            136            0              414            1.9578142e-13
         3   1.1007415           1120   126            144            182            0              668            2.1527022e-13
         4   1.4204649           1424   138            151            200            0              935            2.3375956e-13
         5   1.635885            1750   143            157            224            0              1226           2.5204245e-13
         6   1.8183004           2072   145            165            247            0              1515           2.7000878e-13
         7   2.0107298           2409   153            173            265            0              1818           2.8812745e-13
         8   2.1793513           2769   165            180            288            0              2136           3.0604644e-13
         9   2.3298596           3134   168            193            311            0              2462           3.2387551e-13
        10   2.5056949           3501   173            202            331            0              2795           3.4149108e-13
        11   2.6558597           3899   181            212            353            0              3153           3.5861174e-13
        12   2.7950346           4286   186            215            376            0              3509           3.7540338e-13
        13   2.91974             4676   191            220            404            0              3861           3.918955e-13 
        14   3.0451189           5060   194            226            423            0              4217           4.0793631e-13
        15   3.1595116           5456   199            228            450            0              4579           4.2352234e-13
        16   3.2927597           5832   201            233            471            0              4927           4.3870414e-13
        17   3.4007075           6208   203            236            488            0              5281           4.5337547e-13
        18   3.5145833           6595   211            239            512            0              5633           4.6769457e-13
        19   3.6211523           6990   217            246            535            0              5992           4.8158231e-13
        20   3.7531421           7378   220            251            561            0              6346           4.9486061e-13
        21   3.8729865           7768   223            253            578            0              6714           5.0727393e-13
        22   3.975047            8152   228            258            587            0              7079           5.1925068e-13
        23   4.0626591           8543   235            263            607            0              7438           5.3096797e-13
        24   4.1483572           8937   241            266            623            0              7807           5.4232818e-13
        25   4.2265825           9330   246            270            637            0              8177           5.5330483e-13
        26   4.4751069           9730   250            274            647            0              8559           5.6399862e-13
        27   4.5529291          10107   251            278            661            0              8917           5.7402167e-13
        28   4.6619683          10507   252            283            673            0              9299           5.8379634e-13
        29   4.7498655          10904   256            284            691            0              9673           5.9304338e-13
        30   5.1190905          11273   258            287            703            0              10025          6.0191892e-13
        31   5.2412223          11685   263            290            714            0              10418          6.1065836e-13
        32   5.3477362          12069   266            293            723            0              10787          6.1842764e-13
        33   5.478364           12481   271            296            736            0              11178          6.2604129e-13
        34   5.6102203          12868   274            297            743            0              11554          6.3345524e-13
        35   5.7465602          13265   275            300            755            0              11935          6.4035472e-13
        36   5.9050196          13656   279            302            764            0              12311          6.4709422e-13
        37   6.1449265          14050   283            303            772            0              12692          6.5367368e-13
        38   6.311128           14456   283            303            783            0              13087          6.5985412e-13
        39   6.5729915          14835   286            305            792            0              13452          6.6572104e-13
        40   6.9055153          15231   286            308            798            0              13839          6.7157194e-13
        41   7.3157779          15630   292            310            813            0              14215          6.7711163e-13
        42   7.7291724          16027   294            312            820            0              14601          6.8228674e-13
        43   8.3861489          16412   295            313            828            0              14976          6.8712197e-13
        44   9.1526147          16818   298            319            839            0              15362          6.9172259e-13
        45   10.047491          17215   302            319            843            0              15751          6.9539437e-13
        46   10.992363          17616   305            320            847            0              16144          6.988642e-13 
        47   11.89163           17995   307            321            855            0              16512          7.0225778e-13
        48   12.82648           18410   308            322            862            0              16918          7.0571069e-13
        49   13.810448          18786   309            325            865            0              17287          7.0891091e-13
        50   14.819107          19186   311            329            868            0              17678          7.1179188e-13
        51   15.775196          19585   313            333            870            1              18068          7.1447692e-13
        52   16.75115           19989   315            336            872            1              18465          7.1729244e-13
        53   17.747934          20391   317            338            875            1              18860          7.200888e-13 
        54   18.79388           20801   324            339            877            1              19260          7.2292327e-13
        55   19.865178          21217   329            341            883            2              19662          7.2536633e-13
        56   20.961724          21618   330            342            884            2              20060          7.2763209e-13
        57   22.077246          22040   337            343            889            2              20469          7.2979325e-13
        58   23.216762          22446   338            345            890            2              20871          7.3194587e-13
        59   24.363179          22847   340            345            893            2              21267          7.3389613e-13
        60   25.594276          23288   340            347            898            2              21701          7.3599999e-13
        61   26.77604           23691   341            348            901            2              22099          7.3814612e-13
        62   27.980408          24113   342            349            906            2              22514          7.4018911e-13
        63   29.207849          24526   344            351            909            2              22920          7.4220726e-13
        64   30.489799          24945   344            353            910            4              23334          7.4416585e-13
        65   31.794443          25382   348            355            915            5              23759          7.4610755e-13
        66   33.095193          25786   350            356            920            7              24153          7.4797485e-13
        67   34.418917          26229   354            358            922            9              24586          7.4992511e-13
        68   35.767167          26642   356            358            919            12             24997          7.5186004e-13
        69   37.175778          27067   356            360            920            15             25416          7.5378549e-13
        70   38.641346          27481   358            360            924            16             25823          7.5582905e-13
        71   40.075894          27911   362            361            922            20             26246          7.5788096e-13
        72   41.59952           28338   368            361            921            25             26663          7.6000176e-13
        73   43.069689          28760   368            364            921            32             27075          7.6216126e-13
        74   44.59355           29216   370            366            920            36             27524          7.6461423e-13
        75   46.147718          29633   371            367            919            42             27934          7.6708677e-13
        76   47.723684          30074   374            367            924            45             28364          7.6962502e-13
        77   49.354945          30516   375            369            925            50             28797          7.7215813e-13
        78   51.017599          30950   378            370            925            56             29221          7.7501619e-13
        79   52.744567          31395   379            374            930            59             29653          7.7790752e-13
        80   54.533938          31819   381            376            934            61             30067          7.8140807e-13
        81   56.345697          32263   382            377            941            65             30498          7.8497809e-13
        82   58.179984          32707   382            378            945            71             30931          7.8886979e-13
        83   60.028373          33134   384            379            945            78             31348          7.9343788e-13
        84   61.958493          33591   385            383            950            87             31786          7.9829808e-13
        85   63.893765          34028   385            384            950            98             32211          8.0382216e-13
        86   65.91542           34481   387            385            969            101            32639          8.0987378e-13
        87   67.975869          34897   388            386            981            105            33037          8.1610369e-13
        88   70.042923          35354   388            388            996            115            33467          8.233484e-13 
        89   72.155278          35766   389            388            1009           122            33858          8.3093412e-13
        90   74.357327          36225   389            389            1027           130            34290          8.3926158e-13
        91   76.533434          36631   389            389            1045           136            34672          8.4788579e-13
        92   78.749653          37081   392            391            1069           141            35088          8.5714513e-13
        93   80.977724          37504   394            392            1101           143            35474          8.6673049e-13
        94   83.175659          37954   394            393            1122           150            35895          8.7695362e-13
        95   85.520251          38372   394            394            1142           159            36283          8.869436e-13 
        96   87.877794          38813   394            395            1165           166            36693          8.9789072e-13
        97   90.282655          39226   394            395            1189           175            37073          9.0911432e-13
        98   92.695235          39685   394            395            1231           180            37485          9.2107723e-13
        99   95.091067          40104   394            398            1266           187            37859          9.3300407e-13
       100   97.681762          40525   395            398            1293           193            38246          9.450306e-13 
       101   100.21649          40965   395            398            1327           199            38646          9.5734497e-13
       102   102.83582          41378   396            400            1360           207            39015          9.7003221e-13
       103   105.42882          41795   396            402            1397           215            39385          9.8310336e-13
       104   108.05057          42228   397            402            1425           224            39780          9.9652194e-13
       105   110.74633          42640   397            404            1463           228            40148          1.0095659e-12
       106   113.5119           43059   398            404            1502           236            40519          1.0231341e-12
       107   116.27377          43471   399            405            1528           250            40889          1.0374943e-12
       108   119.07486          43872   399            406            1564           254            41249          1.0516819e-12
       109   121.9318           44297   402            407            1608           258            41622          1.0662558e-12
       110   124.95436          44695   402            409            1647           264            41973          1.0810524e-12
       111   127.93837          45113   404            409            1696           270            42334          1.0961736e-12
       112   130.93219          45529   405            409            1737           274            42704          1.1119953e-12
       113   133.95313          45956   405            411            1794           282            43064          1.1281744e-12
       114   137.04978          46347   405            412            1836           294            43400          1.1444232e-12
       115   140.19614          46767   407            414            1865           309            43772          1.1611424e-12
       116   143.324            47138   409            415            1904           321            44089          1.1775731e-12
       117   146.46955          47555   411            417            1951           329            44447          1.1938676e-12
       118   149.71449          47966   412            417            2010           335            44792          1.2098895e-12
       119   152.96812          48365   413            418            2055           349            45130          1.2260683e-12
       120   156.41254          48761   416            418            2093           360            45474          1.242053e-12 
       121   159.74063          49164   417            418            2128           379            45822          1.257908e-12 
       122   163.12279          49597   417            419            2180           393            46188          1.2732324e-12
       123   166.53647          49998   419            421            2225           409            46524          1.2885577e-12
       124   169.9896           50396   419            424            2254           427            46872          1.3036719e-12
       125   173.51285          50774   419            425            2271           447            47212          1.3182719e-12
       126   177.06587          51173   422            425            2319           466            47541          1.3314551e-12
       127   180.65229          51586   423            426            2343           482            47912          1.3445296e-12
       128   184.24508          51952   428            427            2366           501            48230          1.3567342e-12
       129   187.93509          52353   429            429            2394           523            48578          1.3692997e-12
       130   191.85499          52745   432            429            2421           546            48917          1.3810937e-12
       131   195.66891          53162   437            432            2446           578            49269          1.3925961e-12
       132   199.55849          53534   437            433            2469           598            49597          1.4029684e-12
       133   203.51464          53935   438            433            2479           624            49961          1.4129491e-12
       134   207.48733          54314   441            435            2494           652            50292          1.4228281e-12
       135   211.46595          54725   443            438            2527           674            50643          1.4330454e-12
       136   215.51195          55134   447            439            2546           695            51007          1.443385e-12 
       137   219.62928          55556   449            440            2579           720            51368          1.4537792e-12
       138   223.79603          55997   450            442            2601           745            51759          1.4635582e-12
       139   227.98453          56390   450            442            2646           758            52094          1.4732148e-12
       140   232.38276          56828   450            443            2691           774            52470          1.483135e-12 
       141   236.66442          57248   450            443            2720           795            52840          1.492498e-12 
       142   240.9871           57685   454            445            2761           811            53214          1.5015342e-12
       143   245.39268          58128   456            447            2804           828            53593          1.5104364e-12
       144   249.8167           58586   456            448            2862           840            53980          1.5187827e-12
       145   254.30429          59046   457            449            2914           848            54378          1.5270055e-12
       146   258.82114          59520   458            449            2954           867            54792          1.5355628e-12
       147   263.38878          59972   458            449            2997           879            55189          1.5440206e-12
       148   268.0647           60446   458            449            3041           897            55601          1.5526841e-12
       149   272.78011          60928   459            449            3093           912            56015          1.561936e-12 
       150   277.76943          61434   459            451            3152           931            56441          1.5714315e-12
       151   282.66865          61913   459            451            3195           947            56861          1.5820382e-12
       152   287.68678          62406   459            451            3256           961            57279          1.5933425e-12
       153   292.75383          62879   459            451            3303           975            57691          1.6055247e-12
       154   297.88015          63387   460            451            3361           993            58122          1.6183501e-12
       155   303.06816          63888   461            452            3421           1005           58549          1.6320515e-12
       156   308.35071          64384   462            452            3490           1014           58966          1.6462578e-12
       157   313.68056          64895   463            452            3558           1024           59398          1.6610496e-12
       158   319.12602          65410   464            452            3628           1037           59829          1.6763554e-12
       159   324.6485           65888   464            452            3691           1053           60228          1.6928336e-12
       160   330.38249          66388   464            452            3761           1071           60640          1.709977e-12 
       161   336.01302          66898   464            452            3832           1090           61060          1.7280267e-12
       162   341.7519           67401   464            452            3913           1108           61464          1.7467058e-12
       163   347.56051          67893   464            452            3982           1129           61866          1.7662543e-12
       164   353.43612          68393   464            452            4055           1151           62271          1.7864132e-12
       165   359.38814          68902   464            452            4117           1188           62681          1.8072927e-12
       166   365.40121          69389   464            452            4185           1215           63073          1.8284816e-12
       167   371.44136          69879   464            452            4256           1237           63470          1.8495564e-12
       168   377.57055          70374   464            452            4323           1273           63862          1.8706111e-12
       169   383.8389           70885   464            452            4391           1316           64262          1.8920435e-12
       170   390.3823           71365   465            452            4455           1350           64643          1.9139072e-12
       171   396.83621          71843   466            452            4517           1386           65022          1.9360488e-12
       172   403.44901          72333   466            452            4589           1411           65415          1.9587777e-12
       173   410.15431          72810   467            452            4656           1455           65780          1.9819339e-12
       174   416.91741          73301   467            452            4710           1506           66166          2.0071119e-12
       175   423.74101          73768   467            452            4798           1539           66512          2.0340103e-12
       176   430.63988          74283   467            452            4886           1570           66908          2.0617875e-12
       177   437.65471          74761   467            451            4982           1602           67259          2.0905275e-12
       178   444.76723          75223   467            451            5089           1618           67598          2.1204457e-12
       179   451.95364          75744   467            451            5196           1647           67983          2.1507633e-12
       180   459.38142          76200   467            451            5294           1681           68307          2.1808315e-12
       181   466.74575          76673   467            450            5370           1728           68658          2.2107766e-12
       182   474.23205          77146   467            450            5454           1764           69011          2.2406061e-12
       183   481.7583           77629   467            450            5553           1805           69354          2.2702079e-12
       184   489.38494          78111   467            450            5643           1847           69704          2.2997022e-12
       185   497.11097          78599   467            450            5734           1896           70052          2.3290761e-12
       186   504.95132          79083   467            450            5817           1962           70387          2.3590024e-12
       187   512.88344          79553   467            450            5902           2013           70721          2.3891798e-12
       188   520.90939          80053   467            449            5993           2073           71071          2.4201077e-12
       189   529.00661          80500   467            448            6058           2138           71389          2.4525017e-12
       190   537.33616          81009   467            448            6145           2199           71750          2.4857135e-12
       191   545.54882          81455   466            447            6219           2264           72059          2.5196418e-12
       192   553.84761          81937   466            447            6298           2331           72395          2.5543579e-12
       193   562.24097          82424   465            447            6401           2394           72717          2.5893224e-12
       194   570.7316           82894   465            447            6492           2454           73036          2.6246612e-12
       195   579.32895          83399   465            447            6595           2510           73382          2.6598401e-12
       196   588.02192          83857   464            444            6715           2565           73669          2.6954402e-12
       197   596.78052          84343   464            444            6811           2622           74002          2.7320038e-12
       198   605.68106          84807   464            444            6896           2684           74319          2.7688425e-12
       199   614.6398           85293   464            443            7028           2726           74632          2.8066033e-12
       200   623.92975          85762   464            442            7135           2775           74946          2.8454337e-12
       201   633.18038          86243   464            442            7266           2816           75255          2.8844609e-12
       202   642.45721          86745   463            442            7406           2851           75583          2.9241027e-12
       203   651.78946          87218   463            441            7542           2894           75878          2.9634664e-12
       204   661.25254          87730   463            440            7688           2939           76200          3.0027027e-12
       205   670.82622          88215   462            438            7814           2990           76511          3.0414787e-12
       206   680.48672          88715   462            437            7966           3028           76822          3.0803764e-12
       207   690.23365          89225   461            436            8099           3086           77143          3.1203799e-12
       208   699.93822          89712   461            435            8256           3124           77436          3.1617401e-12
       209   709.68909          90230   461            435            8425           3170           77739          3.2050825e-12
       210   719.72203          90761   460            435            8592           3219           78055          3.2506948e-12
       211   729.69834          91245   460            435            8738           3267           78345          3.298351e-12 
       212   739.81324          91752   461            432            8873           3329           78657          3.3480373e-12
       213   750.00413          92253   461            432            9047           3374           78939          3.3994107e-12
       214   760.31873          92773   461            428            9229           3436           79219          3.4518607e-12
       215   770.75859          93324   461            427            9412           3489           79535          3.5053576e-12
       216   781.29766          93835   461            427            9578           3547           79822          3.5590467e-12
       217   791.93435          94353   460            426            9773           3612           80082          3.6147775e-12
       218   802.74591          94925   458            424            9968           3670           80405          3.6722761e-12
       219   813.65629          95477   458            422            10163          3734           80700          3.7328275e-12
       220   824.89458          96026   455            421            10386          3804           80960          3.7961922e-12
       221   836.07652          96595   454            421            10615          3856           81249          3.8633837e-12
       222   847.45842          97174   452            421            10837          3929           81535          3.9321232e-12
       223   858.91447          97763   452            417            11055          4018           81821          4.0031544e-12
       224   870.64613          98339   450            416            11294          4098           82081          4.0764114e-12
       225   882.51153          98917   448            416            11486          4192           82375          4.1543135e-12
       226   894.51939          99532   448            416            11743          4281           82644          4.23754e-12  
       227   906.66323         100158   448            415            12003          4372           82920          4.3276862e-12
       228   918.97529         100797   447            413            12285          4465           83187          4.4265736e-12
       229   931.49074         101504   444            412            12614          4563           83471          4.5351863e-12
       230   944.46381         102175   442            410            12914          4674           83735          4.65294e-12  
       231   957.31073         102888   441            409            13266          4774           83998          4.7786926e-12
       232   970.42982         103654   441            408            13690          4843           84272          4.9093922e-12
       233   983.68787         104367   440            406            14019          4948           84554          5.0430899e-12
       234   997.10553         105099   440            405            14415          5049           84790          5.1829905e-12
       235   1010.7608         105889   440            404            14839          5142           85064          5.3172253e-12
       236   1024.5567         106643   439            403            15220          5233           85348          5.4573412e-12
       237   1038.5025         107376   439            400            15613          5335           85589          5.5933589e-12
       238   1052.6142         108217   435            396            16093          5436           85857          5.7514508e-12
       239   1066.817          108980   434            394            16491          5540           86121          5.8922936e-12
       240   1081.3874         109782   432            390            16936          5651           86373          6.0380622e-12
       241   1095.7786         110581   429            389            17379          5755           86629          6.1883094e-12
       242   1110.3366         111388   427            388            17856          5851           86866          6.3359469e-12
       243   1124.909          112151   422            388            18291          5944           87106          6.4839872e-12
       244   1139.5706         113015   420            384            18822          6036           87353          6.6405542e-12
       245   1154.3137         113842   420            382            19347          6098           87595          6.7974463e-12
       246   1169.1018         114703   420            378            19897          6185           87823          6.9891177e-12
       247   1183.9617         115596   419            373            20472          6269           88063          7.1523455e-12
       248   1198.8248         116420   416            371            20984          6379           88270          7.3184747e-12
       249   1213.7353         117305   413            366            21561          6484           88481          7.4949109e-12
       250   1228.9618         118229   411            364            22175          6589           88690          7.673812e-12 
       251   1244.0532         119165   407            359            22793          6708           88898          7.8698499e-12
       252   1259.1869         120071   403            355            23409          6828           89076          8.0542617e-12
       253   1274.4295         120957   402            353            23979          6964           89259          8.2474322e-12
       254   1289.7419         121974   401            349            24724          7073           89427          8.4636558e-12
       255   1305.093          122942   396            343            25399          7193           89611          8.6630845e-12
       256   1320.4688         123843   390            342            26005          7343           89763          8.873289e-12 
       257   1335.8969         124843   387            334            26706          7505           89911          9.0896302e-12
       258   1351.3693         125781   385            330            27342          7668           90056          9.2876769e-12
       259   1366.8994         126741   380            326            28045          7824           90166          9.4914755e-12
       260   1382.7585         127732   375            323            28732          7990           90312          9.7114963e-12
       261   1398.4035         128613   372            319            29286          8204           90432          9.8890163e-12
       262   1414.0394         129555   368            312            29897          8444           90534          1.009494e-11 
       263   1429.7141         130553   360            305            30571          8681           90636          1.0308466e-11
       264   1445.4453         131427   358            298            31113          8940           90718          1.049586e-11 
       265   1461.2264         132450   354            296            31774          9213           90813          1.0694333e-11
       266   1477.1063         133341   347            291            32301          9503           90899          1.0880548e-11
       267   1493.0552         134146   341            283            32695          9848           90979          1.1037908e-11
       268   1509.0212         135042   336            273            33218          10157          91058          1.122569e-11 
       269   1525.0715         135960   328            262            33800          10447          91123          1.1395275e-11
       270   1541.5063         136753   323            254            34247          10758          91171          1.1539343e-11
       271   1557.7012         137543   315            246            34697          11056          91229          1.1666375e-11
       272   1573.9519         138321   312            242            35085          11399          91283          1.1795033e-11
       273   1590.187          139115   304            233            35516          11731          91331          1.1919503e-11
       274   1606.5761         139876   293            225            35880          12093          91385          1.2025558e-11
       275   1622.9577         140555   282            223            36213          12415          91422          1.2116899e-11
       276   1639.4028         141239   274            213            36529          12743          91480          1.2189381e-11
       277   1655.88           141829   266            207            36796          13044          91516          1.2263375e-11
       278   1672.4022         142464   249            202            37130          13323          91560          1.2308016e-11
       279   1689.0366         143161   240            192            37549          13587          91593          1.2373941e-11
       280   1706.0257         143722   229            185            37840          13841          91627          1.2407712e-11
       281   1722.7168         144281   223            177            38128          14084          91669          1.2435272e-11
       282   1739.4097         144766   215            172            38363          14318          91698          1.2452611e-11
       283   1756.1786         145270   208            160            38609          14567          91726          1.2469015e-11
       284   1773.0134         145878   198            154            38953          14815          91758          1.25028e-11  
       285   1789.903          146430   191            143            39252          15055          91789          1.2521895e-11
       286   1806.8824         146887   180            137            39403          15348          91819          1.2502627e-11
       287   1823.8619         147335   166            129            39551          15648          91841          1.25153e-11  
       288   1840.9072         147917   160            125            39788          15966          91878          1.2542484e-11
       289   1858.0026         148364   152            118            39887          16297          91910          1.2524757e-11
       290   1875.4848         148831   144            114            40004          16636          91933          1.2529389e-11
       291   1892.6907         149286   127            103            40088          17009          91959          1.2512584e-11
       292   1909.9326         149785   116            96             40193          17386          91994          1.2534811e-11
       293   1927.2278         150195   107            88             40176          17805          92019          1.2516593e-11
       294   1944.5757         150560   102            85             40121          18206          92046          1.2475154e-11
       295   1961.9642         151021   99             77             40181          18594          92070          1.2468971e-11
       296   1979.364          151413   94             72             40203          18945          92099          1.2469404e-11
       297   1996.8748         151933   86             66             40305          19349          92127          1.2471835e-11
       298   2014.4156         152393   79             64             40357          19742          92151          1.2502279e-11
       299   2032.0345         152790   71             58             40419          20069          92173          1.2475976e-11
       300   2050.0177         153267   67             54             40537          20403          92206          1.2479207e-11
       301   2067.6901         153619   62             47             40521          20752          92237          1.2480053e-11
       302   2085.3639         154040   59             44             40574          21097          92266          1.2440791e-11
       303   2103.1041         154468   53             35             40672          21425          92283          1.2440975e-11
       304   2120.9318         154889   48             31             40779          21729          92302          1.244425e-11 
       305   2138.8286         155280   46             30             40813          22048          92343          1.2421549e-11
       306   2156.7508         155566   45             29             40771          22362          92359          1.2389445e-11
       307   2174.7912         156016   40             26             40880          22693          92377          1.2405991e-11
       308   2192.8711         156451   37             20             41000          22989          92405          1.2436465e-11
       309   2211.0673         156872   35             20             41092          23303          92422          1.2413638e-11
       310   2229.6471         157258   31             19             41112          23655          92441          1.2399537e-11
       311   2247.8668         157614   29             19             41096          24002          92468          1.238495e-11 
       312   2266.1466         157961   28             18             41084          24350          92481          1.2379503e-11
       313   2284.5069         158289   27             18             41037          24697          92510          1.2370064e-11
       314   2302.8733         158723   26             18             41134          25023          92522          1.2372591e-11
       315   2321.3022         159123   26             18             41169          25363          92547          1.235009e-11 
       316   2339.8164         159465   26             18             41126          25731          92564          1.2355751e-11
       317   2358.3738         159811   26             18             41055          26123          92589          1.2354154e-11
       318   2376.9932         160195   25             18             41033          26510          92609          1.2357038e-11
       319   2395.6421         160587   25             17             41028          26887          92630          1.2356496e-11
       320   2414.7719         161021   25             17             41022          27306          92651          1.2362159e-11
Loop time of 2414.77 on 16 procs for 320 steps with 161021 atoms

98.3% CPU use with 16 MPI tasks x 1 OpenMP threads

MPI task timing breakdown:
Section |  min time  |  avg time  |  max time  |%varavg| %total
---------------------------------------------------------------
Pair    | 609.05     | 680.33     | 841.44     | 230.4 | 28.17
Neigh   | 582.84     | 667.08     | 869.05     | 291.3 | 27.62
Comm    | 206.38     | 230.81     | 265.21     | 130.9 |  9.56
Output  | 6.0369     | 6.0371     | 6.0378     |   0.0 |  0.25
Modify  | 437.91     | 819.19     | 985.67     | 497.2 | 33.92
Other   |            | 11.33      |            |       |  0.47

Nlocal:        10063.8 ave       15250 max        8517 min
Histogram: 8 3 0 1 2 1 0 0 0 1
Nghost:        7702.06 ave        9726 max        6547 min
Histogram: 2 4 0 4 1 1 3 0 0 1
Neighs:        98961.7 ave      111595 max       92661 min
Histogram: 3 3 5 1 0 1 0 0 2 1

Total # of neighbors = 1583387
Ave neighs/atom = 9.8334192
Neighbor list builds = 28062
Dangerous builds = 27742

Total wall time: 0:40:25
