LAMMPS (23 Jun 2022 - Update 4)
  using 1 OpenMP thread(s) per MPI task
package omp 0
using multi-threaded neighbor list subroutines
#-----------------------------------------------------------------------------#
#                NUFEB Simulation: Heterotrophic Biofilm Growth               #
#-----------------------------------------------------------------------------#


#-----------------------------System Settings---------------------------------#

units si                                    # using si units (m, s, kg)
atom_style      coccus                      # using nufeb coccus atom style
atom_modify     map array sort 10 0         # map array - find atoms using indices
		                            # sort every 10

boundary        pp pp ff                    # periodic boundaries in x and y
                                            # fixed boundary in z

newton          off                         # forces between local and ghost
                                            # atoms are computed in each
					     # processor without communication

processors      * * 1                       # processor grid

comm_modify     vel yes                     # communicate velocities for ghost atoms

read_data       atom_ch.in	             # read atom.in file which defines domain size
Reading data file ...
  orthogonal box = (0 0 0) to (6e-05 6e-05 6e-05)
  4 by 4 by 1 MPI processor grid
  reading atoms ...
  150 atoms
  read_data CPU = 0.026 seconds
                                            # and initial atoms


#--------------------Microbes and Functional Groups-------------------------#

group           CROSS1   type 1               # assign type 1,2 atoms to CROSS group
50 atoms in group CROSS1
group           CROSS2   type 2
50 atoms in group CROSS2
group		CHEATER  type 3
50 atoms in group CHEATER
group           dead     type 4
0 atoms in group dead
group		EPS	 type 5
0 atoms in group EPS

neighbor        5e-7 bin                   # setting neighbour skin distance and style

neigh_modify    check yes                  # rebuild neighbour list if any atom
                                           # had moved more than half the skin distance


#--------------------------Mesh Grid and Substrates--------------------------#

# defining grid sytle, substrate names, and grid size
grid_style      nufeb/chemostat 3 sub metab1 metab2 5e-6

# set diffusion boundary conditions and initial concentrations (liquid:kg/m3)
grid_modify     set sub      pp pp nd  1.8e-4
No /omp style for force computation currently active
grid_modify     set metab1   pp pp nd  1e-4
No /omp style for force computation currently active
grid_modify     set metab2   pp pp nd  1e-4
No /omp style for force computation currently active


#--------------------------Biological Processes-------------------------------#

# heterotrophs growth
fix growth_cross1 CROSS1 nufeb/growth/cross1 sub 3.5e-5 metab2 4e-3 metab1 growth 0.009 yield 0.6 decay 2.6e-6 metab1_exp 20 epsyield 0.12 epsdens 30

fix growth_cross2 CROSS2 nufeb/growth/cross2 sub 3.5e-5 metab1 4e-3 metab2 growth 0.009 yield 0.6 decay 2.6e-6 metab2_exp 20 epsyield 0.12 epsdens 30

fix growth_cheater CHEATER nufeb/growth/cheater sub 3.5e-5 metab1 1e-3 metab2 1e-3 growth 0.009 yield 0.6 decay 2.6e-6 epsyield 0.12 epsdens 30

# heterotrophs division, division diameter: 1.36e-6
fix div1 CROSS1 nufeb/division/coccus 1.36e-6 503
fix div2 CROSS2 nufeb/division/coccus 1.36e-6 1706
fix div3 CHEATER nufeb/division/coccus 1.36e-6 3709

fix death1 CROSS1 nufeb/death/diameter dead 5.43e-7
fix death2 CROSS2 nufeb/death/diameter dead 5.43e-7
fix death3 CHEATER nufeb/death/diameter dead 5.43e-7

# EPS secretion from heterotrophs
fix eps1 CROSS1 nufeb/eps_secretion 5 EPS 1.1 30 6512
fix eps2 CROSS2 nufeb/eps_secretion 5 EPS 1.1 30 10115
fix eps3 CROSS2 nufeb/eps_secretion 5 EPS 1.1 30 14518
#---------------------------Physical Processes--------------------------------#

pair_style  gran/hooke/history 1e-4 NULL 1e-5 NULL 0.0 0    # pairwise interaction
pair_coeff  * *                                             # between atoms

# pairwise interaction between z-wall and atoms
fix wall all wall/gran hooke/history 1e-3 NULL 1e-4 NULL 0 0 zplane 0.0 1e-04

fix vis all viscous 1e-5                                    # viscous damping force

fix grav all gravity 9.81 vector 0.0 0.0 -1.0

fix nve all nve/limit 1e-7                                  # NVE integration with
                                                            # maximum distance limit


#---------------------------Post-Physical Processes---------------------------#

fix coeff_sub all nufeb/diffusion_coeff sub ratio 0.8       # defining diffusion coeff in the biofilm
fix coeff_metab1 all nufeb/diffusion_coeff metab1 ratio 0.8    # region is 80% of the value in liquid
fix coeff_metab2 all nufeb/diffusion_coeff metab2 ratio 0.8

#---------------------------Chemical Processes---------------------------------#

fix diff_sub all nufeb/diffusion_reaction sub 1e-9        # diffusion reaction for updating
fix diff_metab1 all nufeb/diffusion_reaction metab1 4e-9     # distribusion of substrate concentration
fix diff_metab2 all nufeb/diffusion_reaction metab2 4e-9

#--------------------------Computations and Outputs----------------------------#

variable mass equal "mass(all)"                             # total mass
variable ncross1 equal "count(CROSS1)"                      # total # of CROSS1
variable ncross2 equal "count(CROSS2)"                      # total # of CROSS2
variable ncheater equal "count(CHEATER)"
variable ndead equal "count(dead)"
variable neps equal "count(EPS)"

shell mkdir vtk_CHEPS_ch                                            # dump vtk files to /vtk folder
dump du1 all vtk 10 vtk_CHEPS_ch/dump*.vtu id type diameter         # require build NUFEB with vtk option
dump du2 all grid/vtk 10 vtk_CHEPS_ch/dump_%_*.vti con rea den gro

#dump du3 all movie 10 movie.avi type diameter view 80 60    # dump video
#dump_modify du3 acolor 1 blue acolor 2 lightgrey framerate 10


                                                            # dump hdf5 files to /hdf5 folder
#shell mkdir hdf5                                           # require build NUFEB with hdf5 option
#dump du3 all nufeb/hdf5 10 dump.h5 id type x y z vx vy vz fx fy fz radius conc reac

thermo_style custom step cpu atoms v_ncross1 v_ncross2 v_ncheater v_ndead v_neps v_mass     # screen and log outputs
thermo 1
thermo_modify   lost ignore

#-----------------------------------Run----------------------------------------#

# issue run command, define timesteps for physical (pairdt) and chemical (diffdt) processes
run_style nufeb diffdt 1e-4 difftol 1e-6 pairdt 1e-2 pairtol 1 pairmax 1000 diffmax 5000

timestep 12000                                               # define biological timesteps (1000s)

run 300                                                    # growing biofilm for 900x1000s
Generated 0 of 6 mixed pair_coeff terms from geometric mixing rule
Last active /omp style is pair_style gran/hooke/history/omp
Neighbor list info ...
  update every 1 steps, delay 10 steps, check yes
  max neighbors/atom: 2000, page size: 100000
  master list distance cutoff = 2.49e-06
  ghost atom cutoff = 2.49e-06
  binsize = 1.245e-06, bins = 49 49 49
  1 neighbor lists, perpetual/occasional/extra = 1 0 0
  (1) pair gran/hooke/history/omp, perpetual
      attributes: half, newton off, size, history, omp
      pair build: half/size/bin/newtoff/omp
      stencil: full/bin/3d
      bin: standard
Per MPI rank memory allocation (min/avg/max) = 11.02 | 11.02 | 11.02 Mbytes
   Step          CPU          Atoms      v_ncross1      v_ncross2      v_ncheater      v_ndead         v_neps         v_mass    
         0   0                    150   50             50             50             0              0              1.3295396e-13
         1   0.38633099           490   90             85             83             0              232            1.6429847e-13
         2   0.75602008           905   117            126            124            0              538            1.8157451e-13
         3   1.0414623           1236   128            140            141            0              827            1.9582923e-13
         4   1.3225597           1571   138            146            150            0              1137           2.0891515e-13
         5   1.4942334           1911   142            159            154            0              1456           2.2144227e-13
         6   1.6274559           2245   148            165            161            0              1771           2.3364853e-13
         7   1.7643267           2607   158            173            167            0              2109           2.4570912e-13
         8   1.9138303           2981   166            189            176            0              2450           2.5750782e-13
         9   2.03138             3348   171            198            179            0              2800           2.6905546e-13
        10   2.2006327           3733   178            207            185            0              3163           2.8044615e-13
        11   2.3107356           4143   186            224            193            0              3540           2.9160907e-13
        12   2.4188409           4533   192            228            197            0              3916           3.0259077e-13
        13   2.5163258           4955   197            234            210            0              4314           3.1339373e-13
        14   2.6053175           5355   200            236            221            0              4698           3.2396964e-13
        15   2.7198547           5752   205            241            227            0              5079           3.3429639e-13
        16   2.8339367           6168   211            246            231            0              5480           3.4447323e-13
        17   2.9513439           6574   221            248            234            0              5871           3.5432777e-13
        18   3.0474891           7011   231            254            238            0              6288           3.6410435e-13
        19   3.1366077           7414   235            260            246            0              6673           3.7356871e-13
        20   3.2974577           7845   240            263            255            0              7087           3.8308641e-13
        21   3.3853006           8247   243            264            262            0              7478           3.9225513e-13
        22   3.4711058           8667   246            268            271            0              7882           4.0125447e-13
        23   3.5800431           9078   251            270            281            0              8276           4.1000017e-13
        24   3.6922425           9507   256            277            287            0              8687           4.1861429e-13
        25   3.7977459           9927   259            282            293            0              9093           4.2710648e-13
        26   3.9099137          10328   262            286            298            0              9482           4.3535017e-13
        27   3.9965647          10736   265            290            303            0              9878           4.4347913e-13
        28   4.09311            11142   268            293            309            0              10272          4.5140383e-13
        29   4.1817646          11561   275            296            318            0              10672          4.5918788e-13
        30   4.3317249          11981   279            300            328            0              11074          4.6684271e-13
        31   4.4381361          12389   279            304            334            0              11472          4.7431893e-13
        32   4.5737788          12795   282            309            339            0              11865          4.8176086e-13
        33   4.7224805          13199   284            309            341            0              12265          4.8915597e-13
        34   4.9423567          13612   285            313            347            0              12667          4.9631546e-13
        35   5.141499           14013   286            317            352            0              13058          5.0314911e-13
        36   5.4024962          14429   290            319            358            0              13462          5.1022123e-13
        37   5.8157848          14829   295            320            364            0              13850          5.1688096e-13
        38   6.3218257          15244   298            323            369            0              14254          5.2331894e-13
        39   6.9962695          15666   303            327            373            0              14663          5.294696e-13 
        40   7.770509           16080   310            331            381            0              15058          5.3538639e-13
        41   8.5959834          16506   312            334            389            0              15471          5.4112235e-13
        42   9.439436           16928   314            337            391            0              15886          5.468134e-13 
        43   10.15803           17341   316            340            394            0              16291          5.5236603e-13
        44   11.066357          17764   318            342            395            0              16709          5.5805446e-13
        45   11.981308          18171   323            344            397            0              17107          5.6352875e-13
        46   12.928023          18603   326            345            403            0              17529          5.6895296e-13
        47   13.886424          19025   329            346            407            0              17943          5.7409578e-13
        48   14.826282          19429   332            348            408            0              18341          5.7903815e-13
        49   15.79868           19874   336            350            414            0              18774          5.840453e-13 
        50   16.855166          20304   338            355            416            0              19195          5.8887586e-13
        51   17.898405          20735   343            356            417            0              19619          5.9365695e-13
        52   18.945301          21139   343            358            420            0              20018          5.9816949e-13
        53   20.031284          21596   345            360            428            0              20463          6.0278481e-13
        54   21.126875          21991   345            361            429            0              20856          6.0714254e-13
        55   22.235414          22435   349            363            433            0              21290          6.1144885e-13
        56   23.370012          22862   351            368            436            0              21707          6.1549211e-13
        57   24.5294            23311   353            372            442            0              22144          6.1962752e-13
        58   25.721948          23780   360            376            444            0              22600          6.236513e-13 
        59   26.917998          24212   365            378            448            0              23021          6.2747096e-13
        60   59.360221          24663   368            382            450            0              23463          6.3135275e-13
        61   60.608576          25104   368            384            453            0              23899          6.3524883e-13
        62   61.876073          25565   369            385            457            0              24354          6.3919038e-13
        63   63.169516          26004   372            386            459            0              24787          6.4292907e-13
        64   64.511207          26458   373            386            462            0              25237          6.4665568e-13
        65   65.869718          26894   373            387            464            0              25670          6.5018322e-13
        66   67.261755          27370   375            389            467            0              26139          6.5395886e-13
        67   68.689196          27814   378            392            470            0              26574          6.5750806e-13
        68   70.127364          28278   379            393            473            0              27033          6.6110068e-13
        69   71.591499          28714   380            393            479            0              27462          6.6454696e-13
        70   73.183676          29179   382            395            479            0              27923          6.6813969e-13
        71   74.713261          29636   385            398            482            0              28371          6.7143739e-13
        72   76.275533          30088   386            398            484            0              28820          6.747215e-13 
        73   77.886195          30551   388            401            485            0              29277          6.7803746e-13
        74   79.515661          31012   390            402            488            0              29732          6.8125979e-13
        75   81.17694           31456   390            403            491            0              30172          6.8439813e-13
        76   82.876437          31913   391            405            494            0              30623          6.8756089e-13
        77   84.600419          32375   393            406            495            0              31081          6.9068013e-13
        78   86.38765           32846   393            408            495            0              31550          6.9382809e-13
        79   88.204626          33281   396            409            496            0              31980          6.9675309e-13
        80   90.127126          33779   398            412            502            0              32467          6.998627e-13 
        81   92.008178          34223   398            414            503            0              32908          7.0281824e-13
        82   93.956461          34700   398            416            505            0              33381          7.0591836e-13
        83   95.915149          35171   400            418            510            0              33843          7.0892193e-13
        84   97.916652          35632   401            419            512            0              34300          7.118614e-13 
        85   99.947247          36093   401            421            516            0              34755          7.148622e-13 
        86   102.01267          36552   402            424            518            0              35208          7.1787367e-13
        87   104.13881          37040   404            425            521            0              35690          7.2102807e-13
        88   106.34476          37481   404            428            525            0              36124          7.240961e-13 
        89   108.57568          37958   405            428            529            0              36596          7.2750363e-13
        90   111.17634          38416   406            429            531            0              37050          7.3091965e-13
        91   113.49976          38877   406            432            537            0              37502          7.3469554e-13
        92   115.89676          39336   409            433            540            0              37954          7.3863652e-13
        93   118.32557          39794   410            435            548            0              38401          7.4256356e-13
        94   120.86119          40251   411            437            555            0              38848          7.4658206e-13
        95   123.39415          40700   411            439            560            0              39290          7.5073247e-13
        96   126.00655          41155   411            443            564            0              39737          7.5509297e-13
        97   128.60184          41605   413            446            574            0              40172          7.5959302e-13
        98   131.27766          42072   415            451            584            0              40622          7.6444264e-13
        99   133.93463          42526   417            456            596            0              41057          7.693077e-13 
       100   136.79601          42963   419            456            604            0              41484          7.7448028e-13
       101   139.60541          43427   421            462            617            0              41927          7.8002178e-13
       102   142.4388           43867   421            462            629            0              42355          7.8570751e-13
       103   145.30078          44315   424            466            644            1              42780          7.9145145e-13
       104   148.20485          44773   428            473            658            1              43213          7.9747406e-13
       105   151.16714          45204   430            475            671            1              43627          8.0349411e-13
       106   154.13796          45666   433            479            678            1              44075          8.0956952e-13
       107   157.18806          46110   434            482            691            1              44502          8.1570263e-13
       108   160.19524          46558   437            485            708            1              44927          8.2193902e-13
       109   163.3122           47018   440            491            717            2              45368          8.2813004e-13
       110   166.56823          47467   441            495            728            4              45799          8.3421747e-13
       111   169.7375           47932   443            499            739            5              46246          8.4022728e-13
       112   172.95721          48379   444            502            748            5              46680          8.4606382e-13
       113   176.26176          48861   449            508            762            6              47136          8.5188288e-13
       114   179.68156          49324   450            514            773            7              47580          8.5780159e-13
       115   183.14607          49811   454            520            790            7              48040          8.6373977e-13
       116   186.64387          50288   456            523            799            7              48503          8.6901661e-13
       117   190.17559          50767   460            527            807            10             48963          8.7388587e-13
       118   193.75084          51218   462            528            816            13             49399          8.7847672e-13
       119   197.35134          51746   465            532            820            19             49910          8.8319078e-13
       120   201.1965           52218   470            534            820            22             50372          8.8759552e-13
       121   204.99418          52711   472            539            820            26             50854          8.9172613e-13
       122   208.83279          53241   473            541            821            29             51377          8.9538836e-13
       123   212.67218          53773   476            543            826            32             51896          8.9888837e-13
       124   216.69745          54280   478            545            827            34             52396          9.0215119e-13
       125   220.7253           54785   478            548            829            35             52895          9.0512832e-13
       126   224.82976          55330   482            551            830            37             53430          9.0805462e-13
       127   228.9673           55867   486            552            831            39             53959          9.1053018e-13
       128   233.1968           56445   489            553            828            42             54533          9.1310434e-13
       129   237.49246          56975   490            554            821            49             55061          9.1530605e-13
       130   241.96611          57562   490            555            817            54             55646          9.175794e-13 
       131   246.3715           58108   491            557            815            56             56189          9.1941316e-13
       132   250.82505          58737   495            558            811            62             56811          9.2149878e-13
       133   255.27606          59313   498            559            806            68             57382          9.2316491e-13
       134   259.82207          59941   498            559            806            68             58010          9.2507652e-13
       135   264.42299          60521   498            561            804            71             58587          9.2668487e-13
       136   269.1212           61139   500            561            801            74             59203          9.2857939e-13
       137   273.87955          61718   501            561            799            77             59780          9.3028193e-13
       138   278.72393          62347   503            562            795            81             60406          9.3214392e-13
       139   283.63943          62923   503            563            791            85             60981          9.3388859e-13
       140   288.78281          63527   504            565            787            89             61582          9.3570682e-13
       141   293.89096          64131   504            565            785            92             62185          9.3758635e-13
       142   299.07235          64708   504            567            784            94             62759          9.3932078e-13
       143   304.32051          65327   505            567            783            95             63377          9.4126263e-13
       144   309.65067          65925   506            569            780            98             63972          9.4304778e-13
       145   315.06294          66536   506            569            777            101            64583          9.4501148e-13
       146   320.56089          67118   508            569            776            103            65162          9.4682699e-13
       147   326.11733          67734   509            569            773            106            65777          9.4879835e-13
       148   331.74261          68320   511            569            771            108            66361          9.5070482e-13
       149   337.43773          68919   512            570            766            113            66958          9.5263173e-13
       150   343.38036          69533   515            570            766            115            67567          9.5464856e-13
       151   349.29183          70128   515            571            762            119            68161          9.5655262e-13
       152   355.28047          70727   515            571            760            122            68759          9.5852211e-13
       153   361.33302          71309   516            571            757            126            69339          9.6042064e-13
       154   367.52208          71921   517            571            754            129            69950          9.6244417e-13
       155   373.74319          72514   519            572            754            129            70540          9.6439796e-13
       156   380.06739          73103   519            572            753            130            71129          9.6640846e-13
       157   386.44051          73724   519            572            752            131            71750          9.6852171e-13
       158   392.86953          74287   520            572            747            136            72312          9.7042375e-13
       159   399.41233          74906   521            573            748            136            72928          9.7251668e-13
       160   406.22298          75491   522            573            742            142            73512          9.7447028e-13
       161   412.93938          76102   522            573            742            143            74122          9.7658668e-13
       162   419.71535          76679   522            573            738            147            74699          9.7855442e-13
       163   426.57102          77308   524            577            738            149            75320          9.8069101e-13
       164   433.49391          77895   526            577            739            150            75903          9.8271938e-13
       165   440.52559          78493   526            577            731            158            76501          9.8480185e-13
       166   447.69154          79088   527            578            731            159            77093          9.8687083e-13
       167   454.92802          79721   528            578            731            160            77724          9.8906966e-13
       168   462.2371           80301   528            580            731            161            78301          9.909703e-13 
       169   469.66039          80913   528            580            730            162            78913          9.9308397e-13
       170   477.34641          81499   528            580            728            165            79498          9.9508899e-13
       171   484.90688          82114   528            582            727            166            80111          9.9721846e-13
       172   492.56806          82722   530            582            726            168            80716          9.9934188e-13
       173   500.31991          83297   530            582            725            169            81291          1.0012912e-12
       174   508.12674          83929   531            583            719            175            81921          1.0035061e-12
       175   516.01146          84535   533            584            717            177            82524          1.0055865e-12
       176   523.98578          85134   536            584            714            180            83120          1.0077074e-12
       177   532.04412          85758   537            585            711            183            83742          1.0099329e-12
       178   540.19616          86364   537            585            704            190            84348          1.0120224e-12
       179   548.43026          86958   537            586            700            194            84941          1.0141534e-12
       180   556.88736          87558   537            586            700            194            85541          1.0163497e-12
       181   565.29311          88178   538            586            697            197            86160          1.0185538e-12
       182   573.74789          88764   538            588            695            199            86744          1.0206803e-12
       183   582.31927          89387   540            589            691            204            87363          1.0229416e-12
       184   590.99254          90001   541            589            690            205            87976          1.0250802e-12
       185   599.69687          90595   542            589            685            211            88568          1.0272388e-12
       186   608.50913          91208   542            590            682            215            89179          1.0294072e-12
       187   617.4416           91830   543            590            678            219            89800          1.031701e-12 
       188   626.41277          92430   543            591            677            222            90397          1.0339151e-12
       189   635.46101          93068   544            591            672            228            91033          1.0362767e-12
       190   644.80523          93661   545            592            670            230            91624          1.0384139e-12
       191   654.00866          94301   545            592            670            231            92263          1.0408021e-12
       192   663.31499          94878   546            592            669            232            92839          1.0429e-12   
       193   672.6928           95533   547            592            669            232            93493          1.0453211e-12
       194   682.17013          96097   547            592            667            234            94057          1.0473695e-12
       195   691.73721          96760   548            592            663            238            94719          1.0498786e-12
       196   701.40273          97323   548            592            659            242            95282          1.0519209e-12
       197   711.15894          97967   549            592            658            244            95924          1.0543952e-12
       198   721.00699          98552   549            592            656            246            96509          1.0565293e-12
       199   730.93743          99180   550            593            654            248            97135          1.0589039e-12
       200   741.16604          99784   551            593            652            250            97738          1.0611706e-12
       201   751.28781         100400   551            594            649            253            98353          1.0634872e-12
       202   761.45951         101014   552            594            645            257            98966          1.0657987e-12
       203   771.74613         101615   552            594            639            263            99567          1.0680753e-12
       204   782.13086         102241   552            594            639            263            100193         1.0704394e-12
       205   792.58847         102850   552            595            636            266            100801         1.0727398e-12
       206   803.13671         103457   552            595            634            269            101407         1.0750522e-12
       207   813.80862         104078   554            595            632            273            102024         1.0774062e-12
       208   824.51345         104695   554            595            628            277            102641         1.0797743e-12
       209   835.30285         105310   554            596            625            280            103255         1.0821186e-12
       210   846.45437         105925   554            597            627            281            103866         1.0844514e-12
       211   857.38694         106547   554            597            625            283            104488         1.0868374e-12
       212   868.47714         107167   554            597            620            289            105107         1.0892181e-12
       213   879.64803         107778   555            597            616            293            105717         1.0915338e-12
       214   890.90653         108405   555            597            615            294            106344         1.0939299e-12
       215   902.27437         109017   555            597            612            297            106956         1.0962902e-12
       216   913.71215         109639   555            597            607            302            107578         1.0987082e-12
       217   925.26761         110255   555            597            602            307            108194         1.1010917e-12
       218   936.89439         110875   555            597            600            311            108812         1.1035779e-12
       219   948.63789         111481   555            597            600            313            109416         1.1060645e-12
       220   960.71494         112103   555            598            596            317            110037         1.1085837e-12
       221   972.71296         112724   555            599            594            319            110657         1.11117e-12  
       222   984.73341         113342   556            599            593            321            111273         1.113703e-12 
       223   996.88574         113968   556            599            592            323            111898         1.1164063e-12
       224   1009.1649         114575   556            599            591            325            112504         1.1190662e-12
       225   1021.4367         115200   557            599            591            328            113125         1.1217865e-12
       226   1033.9403         115817   557            598            593            329            113740         1.1245028e-12
       227   1046.4712         116433   557            598            591            333            114354         1.1273481e-12
       228   1059.1174         117042   557            598            588            336            114963         1.130227e-12 
       229   1071.8538         117656   558            598            588            337            115575         1.133094e-12 
       230   1085.0457         118285   559            599            588            341            116198         1.1361164e-12
       231   1098.084          118911   561            599            587            346            116818         1.1393182e-12
       232   1111.2317         119511   561            600            586            349            117415         1.1428705e-12
       233   1124.4888         120136   561            600            587            352            118036         1.1465818e-12
       234   1137.7852         120742   561            600            586            358            118637         1.1507893e-12
       235   1151.312          121355   561            602            594            361            119237         1.1551074e-12
       236   1164.9434         121959   561            603            596            364            119835         1.1601822e-12
       237   1178.5418         122547   562            603            599            370            120413         1.1655726e-12
       238   1192.3251         123150   562            606            608            370            121004         1.1712487e-12
       239   1206.2323         123734   563            606            618            374            121573         1.1771664e-12
       240   1220.5419         124312   565            607            631            377            122132         1.1837417e-12
       241   1234.601          124885   564            608            641            385            122687         1.1907588e-12
       242   1248.909          125462   567            608            654            386            123247         1.1980487e-12
       243   1263.2359         126022   572            609            667            393            123781         1.2056902e-12
       244   1277.6786         126556   573            615            674            399            124295         1.2129776e-12
       245   1292.1286         127088   580            617            679            404            124808         1.2202654e-12
       246   1306.6809         127603   585            619            692            407            125300         1.2271817e-12
       247   1321.2715         128114   588            622            697            412            125795         1.233876e-12 
       248   1336.0273         128644   592            627            707            415            126303         1.2404658e-12
       249   1350.8774         129158   597            629            715            419            126798         1.2467134e-12
       250   1366.1185         129698   600            630            712            429            127327         1.2525775e-12
       251   1381.1804         130243   605            637            718            432            127851         1.2579403e-12
       252   1396.3005         130770   605            642            721            439            128363         1.2626414e-12
       253   1411.4297         131372   608            647            720            447            128950         1.2669818e-12
       254   1426.8505         131964   610            651            718            456            129529         1.270974e-12 
       255   1442.3765         132610   609            655            714            466            130166         1.2749829e-12
       256   1457.8778         133212   611            658            708            472            130763         1.2783261e-12
       257   1473.4349         133886   613            660            704            479            131430         1.2817083e-12
       258   1489.103          134531   613            660            697            489            132072         1.2845818e-12
       259   1504.8817         135260   614            660            688            498            132800         1.2875519e-12
       260   1521.1113         135916   613            658            684            505            133456         1.2902173e-12
       261   1537.1498         136637   614            658            678            511            134176         1.2929859e-12
       262   1553.2924         137335   612            659            680            513            134871         1.2956412e-12
       263   1569.5239         138073   613            659            676            517            135608         1.2983997e-12
       264   1585.827          138765   613            659            670            524            136299         1.3009902e-12
       265   1602.2785         139512   613            660            669            526            137044         1.3038196e-12
       266   1618.8448         140218   614            659            666            530            137749         1.3064883e-12
       267   1635.4631         140929   614            659            663            533            138460         1.3091951e-12
       268   1652.2469         141638   612            660            661            537            139168         1.3119078e-12
       269   1669.1182         142361   612            661            660            538            139890         1.3146613e-12
       270   1686.4334         143077   612            661            659            540            140605         1.3173451e-12
       271   1703.6028         143792   612            662            652            547            141319         1.3200828e-12
       272   1720.7725         144518   613            663            651            548            142043         1.3228244e-12
       273   1738.1003         145219   614            664            649            550            142742         1.3254872e-12
       274   1755.5936         145924   614            664            647            553            143446         1.3281482e-12
       275   1773.1822         146631   614            664            644            556            144153         1.3308815e-12
       276   1790.8762         147349   615            664            643            557            144870         1.3336095e-12
       277   1808.6475         148068   615            664            643            557            145589         1.3363323e-12
       278   1826.5523         148766   615            663            639            562            146287         1.3390049e-12
       279   1844.5418         149464   616            663            639            562            146984         1.3416608e-12
       280   1863.0085         150173   617            664            636            565            147691         1.3443695e-12
       281   1881.2657         150886   617            664            633            568            148404         1.3471008e-12
       282   1899.6841         151604   617            664            633            568            149122         1.349849e-12 
       283   1918.2057         152313   618            664            631            570            149830         1.3525041e-12
       284   1936.8579         153011   618            664            629            572            150528         1.3552104e-12
       285   1955.6321         153705   618            665            626            575            151221         1.3578275e-12
       286   1974.5727         154425   618            665            626            578            151938         1.3606542e-12
       287   1993.5766         155130   618            665            625            579            152643         1.3632756e-12
       288   2012.6855         155851   618            665            625            579            153364         1.3660505e-12
       289   2032.0257         156550   619            665            621            583            154062         1.3686438e-12
       290   2051.771          157262   619            665            621            583            154774         1.371403e-12 
       291   2071.2402         157983   619            666            621            583            155494         1.3741518e-12
       292   2090.8619         158646   619            666            621            583            156157         1.3767036e-12
       293   2110.576          159397   621            666            622            583            156905         1.379586e-12 
       294   2130.4269         160055   621            666            622            583            157563         1.3821319e-12
       295   2150.4756         160798   622            665            619            587            158305         1.3849212e-12
       296   2170.6147         161474   622            667            618            588            158979         1.3874995e-12
       297   2190.8981         162200   623            668            617            589            159703         1.3902692e-12
       298   2211.2839         162891   623            668            617            589            160394         1.3929282e-12
       299   2231.7981         163622   623            668            617            589            161125         1.395698e-12 
       300   2252.8822         164289   623            668            617            589            161792         1.3982624e-12
Loop time of 2252.88 on 16 procs for 300 steps with 164289 atoms

96.8% CPU use with 16 MPI tasks x 1 OpenMP threads

MPI task timing breakdown:
Section |  min time  |  avg time  |  max time  |%varavg| %total
---------------------------------------------------------------
Pair    | 686.07     | 738.46     | 784.06     |  96.7 | 32.78
Neigh   | 707.29     | 758.26     | 810.08     | 100.9 | 33.66
Comm    | 196.15     | 204.3      | 213.29     |  31.3 |  9.07
Output  | 37.036     | 37.036     | 37.037     |   0.0 |  1.64
Modify  | 418.13     | 507.8      | 610.5      | 226.0 | 22.54
Other   |            | 7.027      |            |       |  0.31

Nlocal:        10268.1 ave       10600 max       10024 min
Histogram: 5 1 0 1 2 1 2 2 1 1
Nghost:         7876.5 ave        8269 max        7651 min
Histogram: 5 0 3 1 1 2 3 0 0 1
Neighs:         125805 ave      133604 max      120766 min
Histogram: 4 2 0 2 2 3 1 0 1 1

Total # of neighbors = 2012879
Ave neighs/atom = 12.252062
Neighbor list builds = 26389
Dangerous builds = 26089

Total wall time: 0:37:33
