LAMMPS (23 Jun 2022 - Update 4)
  using 1 OpenMP thread(s) per MPI task
package omp 0
using multi-threaded neighbor list subroutines
#-----------------------------------------------------------------------------#
#                NUFEB Simulation: Heterotrophic Biofilm Growth               #
#-----------------------------------------------------------------------------#


#-----------------------------System Settings---------------------------------#

units si                                    # using si units (m, s, kg)
atom_style      coccus                      # using nufeb coccus atom style
atom_modify     map array sort 10 0         # map array - find atoms using indices
		                            # sort every 10

boundary        pp pp ff                    # periodic boundaries in x and y
                                            # fixed boundary in z

newton          off                         # forces between local and ghost
                                            # atoms are computed in each
					     # processor without communication

processors      * * 1                       # processor grid

comm_modify     vel yes                     # communicate velocities for ghost atoms

read_data       atom_ch.in	             # read atom.in file which defines domain size
Reading data file ...
  orthogonal box = (0 0 0) to (6e-05 6e-05 6e-05)
  4 by 4 by 1 MPI processor grid
  reading atoms ...
  150 atoms
  read_data CPU = 0.393 seconds
                                            # and initial atoms


#--------------------Microbes and Functional Groups-------------------------#

group           CROSS1   type 1               # assign type 1,2 atoms to CROSS group
50 atoms in group CROSS1
group           CROSS2   type 2
50 atoms in group CROSS2
group		CHEATER  type 3
50 atoms in group CHEATER
group           dead     type 4
0 atoms in group dead
group		EPS	 type 5
0 atoms in group EPS

neighbor        5e-7 bin                   # setting neighbour skin distance and style

neigh_modify    check yes                  # rebuild neighbour list if any atom
                                           # had moved more than half the skin distance


#--------------------------Mesh Grid and Substrates--------------------------#

# defining grid sytle, substrate names, and grid size
grid_style      nufeb/chemostat 3 sub metab1 metab2 5e-6

# set diffusion boundary conditions and initial concentrations (liquid:kg/m3)
grid_modify     set sub      pp pp nd  1.8e-4
No /omp style for force computation currently active
grid_modify     set metab1   pp pp nd  1e-4
No /omp style for force computation currently active
grid_modify     set metab2   pp pp nd  1e-4
No /omp style for force computation currently active


#--------------------------Biological Processes-------------------------------#

# heterotrophs growth
fix growth_cross1 CROSS1 nufeb/growth/cross1 sub 3.5e-5 metab2 4e-3 metab1 growth 0.009 yield 0.6 decay 2.6e-6 metab1_exp 20 epsyield 0.12 epsdens 30

fix growth_cross2 CROSS2 nufeb/growth/cross2 sub 3.5e-5 metab1 4e-3 metab2 growth 0.009 yield 0.6 decay 2.6e-6 metab2_exp 20 epsyield 0.12 epsdens 30

fix growth_cheater CHEATER nufeb/growth/cheater sub 3.5e-5 metab1 1e-3 metab2 1e-3 growth 0.009 yield 0.6 decay 2.6e-6 epsyield 0.12 epsdens 30

# heterotrophs division, division diameter: 1.36e-6
fix div1 CROSS1 nufeb/division/coccus 1.36e-6 119
fix div2 CROSS2 nufeb/division/coccus 1.36e-6 170
fix div3 CHEATER nufeb/division/coccus 1.36e-6 253

fix death1 CROSS1 nufeb/death/diameter dead 5.43e-7
fix death2 CROSS2 nufeb/death/diameter dead 5.43e-7
fix death3 CHEATER nufeb/death/diameter dead 5.43e-7

# EPS secretion from heterotrophs
fix eps1 CROSS1 nufeb/eps_secretion 5 EPS 1.1 30 368
fix eps2 CROSS2 nufeb/eps_secretion 5 EPS 1.1 30 515
fix eps3 CROSS2 nufeb/eps_secretion 5 EPS 1.1 30 694
#---------------------------Physical Processes--------------------------------#

pair_style  gran/hooke/history 1e-4 NULL 1e-5 NULL 0.0 0    # pairwise interaction
pair_coeff  * *                                             # between atoms

# pairwise interaction between z-wall and atoms
fix wall all wall/gran hooke/history 1e-3 NULL 1e-4 NULL 0 0 zplane 0.0 1e-04

fix vis all viscous 1e-5                                    # viscous damping force

fix grav all gravity 9.81 vector 0.0 0.0 -1.0

fix nve all nve/limit 1e-7                                  # NVE integration with
                                                            # maximum distance limit


#---------------------------Post-Physical Processes---------------------------#

fix coeff_sub all nufeb/diffusion_coeff sub ratio 0.8       # defining diffusion coeff in the biofilm
fix coeff_metab1 all nufeb/diffusion_coeff metab1 ratio 0.8    # region is 80% of the value in liquid
fix coeff_metab2 all nufeb/diffusion_coeff metab2 ratio 0.8

#---------------------------Chemical Processes---------------------------------#

fix diff_sub all nufeb/diffusion_reaction sub 1e-9        # diffusion reaction for updating
fix diff_metab1 all nufeb/diffusion_reaction metab1 4e-9     # distribusion of substrate concentration
fix diff_metab2 all nufeb/diffusion_reaction metab2 4e-9

#--------------------------Computations and Outputs----------------------------#

variable mass equal "mass(all)"                             # total mass
variable ncross1 equal "count(CROSS1)"                      # total # of CROSS1
variable ncross2 equal "count(CROSS2)"                      # total # of CROSS2
variable ncheater equal "count(CHEATER)"
variable ndead equal "count(dead)"
variable neps equal "count(EPS)"

shell mkdir vtk_CHEPS_ch                                            # dump vtk files to /vtk folder
dump du1 all vtk 10 vtk_CHEPS_ch/dump*.vtu id type diameter         # require build NUFEB with vtk option
dump du2 all grid/vtk 10 vtk_CHEPS_ch/dump_%_*.vti con rea den gro

#dump du3 all movie 10 movie.avi type diameter view 80 60    # dump video
#dump_modify du3 acolor 1 blue acolor 2 lightgrey framerate 10


                                                            # dump hdf5 files to /hdf5 folder
#shell mkdir hdf5                                           # require build NUFEB with hdf5 option
#dump du3 all nufeb/hdf5 10 dump.h5 id type x y z vx vy vz fx fy fz radius conc reac

thermo_style custom step cpu atoms v_ncross1 v_ncross2 v_ncheater v_ndead v_neps v_mass     # screen and log outputs
thermo 1
thermo_modify   lost ignore

#-----------------------------------Run----------------------------------------#

# issue run command, define timesteps for physical (pairdt) and chemical (diffdt) processes
run_style nufeb diffdt 1e-4 difftol 1e-6 pairdt 1e-2 pairtol 1 pairmax 1000 diffmax 5000

timestep 12000                                               # define biological timesteps (1000s)

run 300                                                    # growing biofilm for 900x1000s
Generated 0 of 6 mixed pair_coeff terms from geometric mixing rule
Last active /omp style is pair_style gran/hooke/history/omp
Neighbor list info ...
  update every 1 steps, delay 10 steps, check yes
  max neighbors/atom: 2000, page size: 100000
  master list distance cutoff = 2.49e-06
  ghost atom cutoff = 2.49e-06
  binsize = 1.245e-06, bins = 49 49 49
  1 neighbor lists, perpetual/occasional/extra = 1 0 0
  (1) pair gran/hooke/history/omp, perpetual
      attributes: half, newton off, size, history, omp
      pair build: half/size/bin/newtoff/omp
      stencil: full/bin/3d
      bin: standard
Per MPI rank memory allocation (min/avg/max) = 11.02 | 11.02 | 11.02 Mbytes
   Step          CPU          Atoms      v_ncross1      v_ncross2      v_ncheater      v_ndead         v_neps         v_mass    
         0   0                    150   50             50             50             0              0              1.3295396e-13
         1   0.37734324           489   90             85             83             0              231            1.6428388e-13
         2   0.7479652            899   119            124            124            0              532            1.8157011e-13
         3   1.0424686           1256   129            145            140            0              842            1.9584301e-13
         4   1.3185679           1580   136            155            147            0              1142           2.0902302e-13
         5   1.4855665           1912   140            162            152            0              1458           2.2170707e-13
         6   1.6309193           2261   147            174            155            0              1785           2.3416958e-13
         7   1.7646884           2634   154            187            165            0              2128           2.4636915e-13
         8   1.8804403           2997   162            194            173            0              2468           2.5836649e-13
         9   2.0122959           3377   170            200            181            0              2826           2.7022009e-13
        10   15.316702           3741   174            203            188            0              3176           2.8180688e-13
        11   15.420723           4118   177            213            196            0              3532           2.9316822e-13
        12   15.539496           4494   182            223            201            0              3888           3.0427537e-13
        13   15.633205           4897   190            228            210            0              4269           3.1520536e-13
        14   15.722877           5294   195            234            221            0              4644           3.2589912e-13
        15   15.818638           5700   196            243            229            0              5032           3.3640879e-13
        16   15.909584           6092   201            244            230            0              5417           3.4679331e-13
        17   16.037059           6513   205            255            240            0              5813           3.5700676e-13
        18   16.152548           6927   212            261            250            0              6204           3.6695272e-13
        19   16.256124           7353   219            269            257            0              6608           3.7674153e-13
        20   31.303945           7758   226            271            263            0              6998           3.863232e-13 
        21   31.392649           8174   229            279            273            0              7393           3.9571045e-13
        22   31.483884           8588   233            284            281            0              7790           4.0497569e-13
        23   31.601797           9019   234            290            292            0              8203           4.1415353e-13
        24   31.697199           9425   236            296            294            0              8599           4.2298136e-13
        25   31.811846           9831   239            302            304            0              8986           4.3163121e-13
        26   31.949225          10216   242            303            310            0              9361           4.4011841e-13
        27   32.093297          10649   245            307            314            0              9783           4.4868989e-13
        28   32.187095          11026   249            314            324            0              10139          4.5662956e-13
        29   32.30867           11447   254            320            330            0              10543          4.6467276e-13
        30   32.469884          11863   259            327            336            0              10941          4.7244039e-13
        31   32.569396          12282   259            329            341            0              11353          4.8007396e-13
        32   32.733411          12662   262            332            346            0              11722          4.8734968e-13
        33   32.893706          13070   266            334            350            0              12120          4.9464724e-13
        34   33.064145          13485   269            337            354            0              12525          5.0182557e-13
        35   33.228561          13884   273            338            361            0              12912          5.0849687e-13
        36   33.483141          14302   279            340            367            0              13316          5.1521566e-13
        37   33.761363          14717   281            342            377            0              13717          5.2178246e-13
        38   34.299817          15131   287            346            383            0              14115          5.2826546e-13
        39   35.088978          15563   288            349            389            0              14537          5.3448725e-13
        40   39.566494          15976   294            353            389            0              14940          5.4044048e-13
        41   40.457018          16389   295            354            392            0              15348          5.4639241e-13
        42   41.348435          16825   297            360            401            0              15767          5.5206233e-13
        43   42.330878          17227   298            363            404            0              16162          5.5762256e-13
        44   43.263275          17677   300            364            410            0              16603          5.6301024e-13
        45   44.203124          18071   301            367            411            0              16992          5.6799769e-13
        46   45.208932          18517   305            369            416            0              17427          5.7322391e-13
        47   46.201513          18934   307            371            420            0              17836          5.7809829e-13
        48   47.226447          19376   313            373            423            0              18267          5.8297588e-13
        49   48.284004          19824   318            374            430            0              18702          5.8776831e-13
        50   49.436851          20246   320            376            430            0              19120          5.9238535e-13
        51   50.551459          20693   324            379            431            0              19559          5.9679158e-13
        52   51.656345          21118   325            380            434            0              19979          6.009583e-13 
        53   52.79316           21552   325            382            434            0              20411          6.0506338e-13
        54   53.947958          21993   327            384            437            0              20845          6.090212e-13 
        55   55.154365          22434   328            386            439            0              21281          6.1294896e-13
        56   56.374189          22871   331            387            441            0              21712          6.1679571e-13
        57   57.586369          23321   335            389            445            0              22152          6.2058888e-13
        58   58.81917           23766   337            390            447            0              22592          6.242925e-13 
        59   60.082497          24230   338            393            452            0              23047          6.279843e-13 
        60   61.430511          24663   341            395            456            0              23471          6.3148589e-13
        61   62.764381          25117   343            396            457            0              23921          6.3503382e-13
        62   64.116727          25562   346            399            457            0              24360          6.3846543e-13
        63   65.499433          26027   349            402            458            0              24818          6.4194341e-13
        64   66.894618          26480   351            404            462            0              25263          6.4530622e-13
        65   68.323756          26944   355            407            465            0              25717          6.4864791e-13
        66   69.783086          27388   357            408            468            0              26155          6.5181917e-13
        67   71.268128          27850   357            410            471            0              26612          6.550628e-13 
        68   72.802784          28320   359            414            473            0              27074          6.5821441e-13
        69   74.387017          28767   361            415            476            0              27515          6.612943e-13 
        70   82.2121            29244   364            417            477            0              27986          6.6451028e-13
        71   83.808948          29700   366            417            481            0              28436          6.6750325e-13
        72   85.454619          30176   368            419            481            0              28908          6.7052536e-13
        73   87.131472          30613   369            420            481            0              29343          6.7338232e-13
        74   88.836766          31096   371            421            482            0              29822          6.7635459e-13
        75   90.577269          31531   372            423            482            0              30254          6.7904974e-13
        76   92.353777          32027   374            425            487            0              30741          6.8206079e-13
        77   94.167113          32479   375            427            488            0              31189          6.8488166e-13
        78   96.011924          32933   377            427            489            0              31640          6.8769618e-13
        79   97.886581          33398   378            431            490            0              32099          6.9046694e-13
        80   99.903489          33864   379            434            493            0              32558          6.9316857e-13
        81   101.86382          34340   380            435            494            0              33031          6.9590957e-13
        82   103.8767           34816   381            436            494            0              33505          6.9858512e-13
        83   106.03134          35271   381            438            498            0              33954          7.0104748e-13
        84   108.13797          35764   382            440            501            0              34441          7.0372128e-13
        85   110.27763          36220   383            441            502            0              34894          7.0623221e-13
        86   112.49183          36700   384            442            503            0              35371          7.0882416e-13
        87   114.76745          37169   385            444            511            0              35829          7.1161371e-13
        88   117.06253          37646   387            444            512            0              36303          7.1466517e-13
        89   119.4294           38119   391            445            512            0              36771          7.1770144e-13
        90   121.93606          38621   394            445            518            0              37264          7.2096805e-13
        91   124.53503          39074   396            447            521            0              37710          7.240501e-13 
        92   127.07927          39553   397            450            523            0              38183          7.275733e-13 
        93   129.71689          40023   401            453            527            0              38642          7.3100519e-13
        94   132.43563          40495   401            455            535            0              39104          7.3460024e-13
        95   135.21949          40975   402            455            538            0              39580          7.3857669e-13
        96   137.99757          41420   404            457            541            0              40018          7.4229894e-13
        97   140.83838          41903   405            459            547            0              40492          7.4632232e-13
        98   143.80387          42365   405            461            562            0              40937          7.5052822e-13
        99   146.83764          42831   406            465            566            1              41393          7.5499351e-13
       100   150.06374          43278   407            466            571            1              41833          7.5996029e-13
       101   153.20954          43745   408            469            584            1              42283          7.6524098e-13
       102   156.45049          44192   410            474            593            1              42714          7.7061591e-13
       103   159.66953          44636   412            479            603            1              43141          7.760677e-13 
       104   162.99656          45097   417            481            616            1              43582          7.8184345e-13
       105   166.29287          45519   420            484            629            1              43985          7.8760206e-13
       106   169.62413          45949   422            492            643            1              44391          7.9343895e-13
       107   173.06606          46423   428            496            655            2              44842          7.9962611e-13
       108   176.52109          46850   430            497            669            2              45252          8.0586562e-13
       109   180.02803          47296   437            503            677            2              45677          8.1199718e-13
       110   183.71323          47748   440            504            690            3              46111          8.1793817e-13
       111   187.35265          48193   448            509            699            4              46533          8.237966e-13 
       112   191.0581           48646   451            510            716            5              46964          8.295214e-13 
       113   194.93545          49115   453            516            726            5              47415          8.3475127e-13
       114   198.83258          49592   457            523            734            6              47872          8.3955305e-13
       115   202.70487          50063   461            524            742            6              48330          8.4381667e-13
       116   206.67975          50533   466            528            749            7              48783          8.4807193e-13
       117   210.71544          51032   470            533            753            9              49267          8.5216565e-13
       118   214.83038          51516   475            534            757            10             49740          8.5617857e-13
       119   219.0438           52002   477            537            757            13             50218          8.5975276e-13
       120   223.40849          52523   483            539            762            15             50724          8.6313335e-13
       121   227.8151           53029   486            540            762            17             51224          8.661734e-13 
       122   232.19911          53558   496            545            763            18             51736          8.6909284e-13
       123   236.67508          54085   500            546            761            21             52257          8.7168143e-13
       124   241.23059          54646   501            547            759            23             52816          8.7420318e-13
       125   245.89834          55215   503            551            759            24             53378          8.7660865e-13
       126   250.65153          55778   504            553            758            25             53938          8.7878586e-13
       127   255.52757          56365   507            556            751            32             54519          8.8092292e-13
       128   260.43136          56946   508            558            747            36             55097          8.8296711e-13
       129   265.47064          57510   508            559            744            40             55659          8.8490254e-13
       130   270.74219          58144   509            561            740            45             56289          8.8702253e-13
       131   275.98265          58728   510            563            738            47             56870          8.8898276e-13
       132   281.3628           59349   510            563            736            49             57491          8.9114362e-13
       133   286.83869          59954   510            563            734            51             58096          8.9320354e-13
       134   292.42676          60572   511            565            732            53             58711          8.9526778e-13
       135   298.12236          61156   512            568            731            54             59291          8.9723466e-13
       136   303.91921          61809   512            568            728            57             59944          8.9954977e-13
       137   309.84203          62371   513            569            725            60             60504          9.014443e-13 
       138   315.86598          62995   513            569            723            62             61128          9.0364092e-13
       139   322.02359          63588   515            569            721            65             61718          9.0569246e-13
       140   328.49052          64223   518            570            722            65             62348          9.0784205e-13
       141   334.87765          64803   519            571            717            71             62925          9.0984018e-13
       142   341.43859          65442   524            573            717            71             63557          9.1197722e-13
       143   348.07525          66055   524            576            715            73             64167          9.1405661e-13
       144   354.80956          66686   524            577            712            76             64797          9.1621266e-13
       145   361.66787          67272   524            578            709            79             65382          9.1822895e-13
       146   368.65596          67905   525            578            704            85             66013          9.2055157e-13
       147   375.7506           68503   525            578            701            89             66610          9.2265108e-13
       148   382.97938          69116   525            579            696            94             67222          9.248394e-13 
       149   390.32877          69737   525            579            692            98             67843          9.270933e-13 
       150   397.95952          70341   526            580            689            102            68444          9.2920839e-13
       151   405.55774          70957   527            581            685            106            69058          9.314007e-13 
       152   413.2959           71553   527            581            680            112            69653          9.3352244e-13
       153   421.13917          72169   527            582            677            116            70267          9.3571384e-13
       154   429.09754          72763   527            583            676            117            70860          9.377957e-13 
       155   437.18359          73369   527            583            672            121            71466          9.400227e-13 
       156   445.35705          73963   528            584            670            123            72058          9.4217365e-13
       157   453.64325          74589   528            587            670            124            72680          9.4439092e-13
       158   462.04342          75195   529            587            669            125            73285          9.4655309e-13
       159   470.54735          75826   531            588            665            130            73912          9.487699e-13 
       160   479.33558          76410   531            588            663            133            74495          9.5082059e-13
       161   488.05307          77035   532            588            657            139            75119          9.5308846e-13
       162   496.91932          77615   533            588            657            140            75697          9.5513106e-13
       163   505.88414          78245   534            588            655            142            76326          9.5743076e-13
       164   514.94693          78831   534            590            651            146            76910          9.5957664e-13
       165   524.15132          79452   535            592            646            151            77528          9.6180932e-13
       166   533.46166          80060   535            593            639            158            78135          9.6403748e-13
       167   542.85673          80661   535            593            634            163            78736          9.6622242e-13
       168   552.37776          81272   535            593            635            164            79345          9.6845406e-13
       169   562.09236          81881   535            595            633            166            79952          9.7064871e-13
       170   572.12653          82494   535            596            626            173            80564          9.729097e-13 
       171   582.05556          83110   535            598            627            175            81175          9.7515906e-13
       172   592.10512          83726   537            600            625            179            81785          9.7738988e-13
       173   602.21341          84343   539            600            621            183            82400          9.7963668e-13
       174   612.46883          84958   540            601            615            190            83012          9.8189669e-13
       175   622.81764          85575   541            601            613            192            83628          9.841267e-13 
       176   633.25765          86189   541            601            611            194            84242          9.863786e-13 
       177   643.84068          86798   541            602            611            195            84849          9.8857322e-13
       178   654.53842          87425   541            603            612            196            85473          9.9088021e-13
       179   665.35855          88040   541            605            609            200            86085          9.9313009e-13
       180   676.46507          88652   541            605            605            205            86696          9.9541997e-13
       181   687.51468          89281   541            606            604            206            87324          9.9775891e-13
       182   698.7453           89887   541            607            600            211            87928          9.9999224e-13
       183   710.06727          90512   541            607            594            217            88553          1.0023527e-12
       184   721.47919          91100   542            607            593            218            89140          1.0044947e-12
       185   733.00286          91732   542            607            589            222            89772          1.0068786e-12
       186   744.63156          92334   543            609            586            225            90371          1.0090859e-12
       187   756.37125          92972   543            610            580            232            91007          1.0114946e-12
       188   768.24553          93572   543            610            578            235            91606          1.0137494e-12
       189   780.21212          94206   544            610            574            239            92239          1.0161184e-12
       190   792.50896          94813   545            610            572            241            92845          1.0184028e-12
       191   804.68741          95449   545            610            570            243            93481          1.0207877e-12
       192   817.01566          96066   547            610            567            246            94096          1.0230934e-12
       193   829.44525          96687   547            610            564            249            94717          1.0254372e-12
       194   841.97687          97313   547            613            562            251            95340          1.0277847e-12
       195   854.63368          97929   547            614            559            255            95954          1.0300727e-12
       196   867.39815          98563   548            614            557            257            96587          1.0324657e-12
       197   880.29319          99170   548            614            554            260            97194          1.0347488e-12
       198   893.30538          99811   548            614            546            268            97835          1.0371404e-12
       199   906.45465         100412   549            615            543            271            98434          1.0393689e-12
       200   919.96712         101055   549            617            542            272            99075          1.0417747e-12
       201   933.37925         101682   549            617            538            277            99701          1.0440839e-12
       202   946.93323         102307   549            618            534            281            100325         1.0464333e-12
       203   960.56252         102920   549            618            530            285            100938         1.0487668e-12
       204   974.33327         103553   550            618            529            287            101569         1.0511218e-12
       205   988.2629          104187   551            619            527            290            102200         1.0534893e-12
       206   1002.2656         104807   552            620            523            294            102818         1.055791e-12 
       207   1016.3736         105435   552            620            518            299            103446         1.0581405e-12
       208   1030.6334         106068   553            620            513            304            104078         1.060569e-12 
       209   1045.0205         106707   554            622            507            310            104714         1.0629009e-12
       210   1059.768          107348   554            623            504            313            105354         1.0653391e-12
       211   1074.4346         107987   556            624            502            315            105990         1.0676995e-12
       212   1089.2406         108626   556            626            497            321            106626         1.0701565e-12
       213   1104.1328         109248   556            626            496            322            107248         1.0724397e-12
       214   1119.1432         109899   556            626            492            326            107899         1.074941e-12 
       215   1134.298          110523   556            626            492            327            108522         1.0773125e-12
       216   1149.5586         111151   557            626            488            332            109148         1.079718e-12 
       217   1164.9587         111794   557            626            486            334            109791         1.0821461e-12
       218   1180.4701         112432   557            626            485            335            110429         1.0845776e-12
       219   1196.0995         113050   557            627            482            340            111044         1.0869253e-12
       220   1212.1733         113700   557            627            480            342            111694         1.0894388e-12
       221   1228.097          114335   558            628            476            346            112327         1.091824e-12 
       222   1244.0954         114967   558            628            473            349            112959         1.0943589e-12
       223   1260.2648         115594   559            629            469            354            113583         1.0968593e-12
       224   1276.7124         116243   559            629            466            357            114232         1.0994699e-12
       225   1293.269          116865   559            629            464            360            114853         1.1020272e-12
       226   1309.9232         117505   559            631            462            364            115489         1.1046715e-12
       227   1326.7053         118143   559            631            462            366            116125         1.107572e-12 
       228   1343.6499         118777   559            631            461            370            116756         1.1107099e-12
       229   1360.7359         119408   559            631            465            370            117383         1.1138719e-12
       230   1378.304          120039   559            631            465            372            118012         1.1172761e-12
       231   1395.8294         120676   560            631            467            376            118642         1.1210883e-12
       232   1413.4426         121304   560            631            468            382            119263         1.1253201e-12
       233   1431.2428         121960   561            631            473            384            119911         1.1299088e-12
       234   1449.2247         122558   561            634            475            387            120501         1.1346622e-12
       235   1467.3021         123216   561            634            487            388            121146         1.1400178e-12
       236   1485.5325         123806   562            636            490            392            121726         1.1454632e-12
       237   1503.8561         124434   563            637            500            398            122336         1.1514372e-12
       238   1522.4161         125019   565            638            510            399            122907         1.1575427e-12
       239   1541.0318         125613   566            640            517            402            123488         1.1641865e-12
       240   1560.0913         126182   567            643            517            406            124049         1.1707605e-12
       241   1578.9774         126776   566            649            532            408            124621         1.1772291e-12
       242   1597.9699         127304   573            652            537            413            125129         1.1836248e-12
       243   1617.1035         127851   577            658            549            416            125651         1.1898814e-12
       244   1636.3186         128378   580            661            556            419            126162         1.19589e-12  
       245   1655.7109         128905   582            665            566            422            126670         1.2015065e-12
       246   1675.198          129428   585            670            566            426            127181         1.206565e-12 
       247   1694.7435         129982   587            681            562            432            127720         1.2114486e-12
       248   1714.3694         130552   588            686            565            438            128275         1.2161021e-12
       249   1734.1031         131151   592            689            566            442            128862         1.2205842e-12
       250   1754.2136         131740   596            690            564            446            129444         1.2245674e-12
       251   1774.2386         132376   598            695            564            451            130068         1.22836e-12  
       252   1794.3571         133017   599            700            561            456            130701         1.2320234e-12
       253   1814.573          133681   600            701            553            466            131361         1.2353317e-12
       254   1834.8556         134340   603            702            551            470            132014         1.2384943e-12
       255   1855.2713         135032   603            703            545            476            132705         1.2416468e-12
       256   1875.8943         135755   604            704            539            483            133425         1.2448227e-12
       257   1896.5848         136453   602            707            540            486            134118         1.2476753e-12
       258   1917.4108         137194   602            708            535            492            134857         1.2507155e-12
       259   1938.3849         137908   602            708            529            498            135571         1.2535858e-12
       260   1959.862          138652   602            707            523            505            136315         1.2566398e-12
       261   1981.2749         139367   602            705            516            514            137030         1.2595485e-12
       262   2002.8199         140104   605            705            516            514            137764         1.2625201e-12
       263   2024.5419         140839   606            707            515            515            138496         1.2654805e-12
       264   2046.3696         141571   606            707            511            519            139228         1.2683991e-12
       265   2068.361          142314   606            707            510            520            139971         1.2713434e-12
       266   2090.5324         143042   606            708            506            524            140698         1.2742818e-12
       267   2112.9036         143757   606            707            503            529            141412         1.2770837e-12
       268   2135.374          144508   606            707            502            531            142162         1.2801299e-12
       269   2158.0159         145225   605            707            501            533            142879         1.2829581e-12
       270   2181.2467         145961   603            707            495            542            143614         1.2859191e-12
       271   2204.322          146696   603            709            492            545            144347         1.2888344e-12
       272   2227.5798         147418   604            709            492            546            145067         1.2917074e-12
       273   2250.975          148148   605            708            488            551            145796         1.29465e-12  
       274   2274.4846         148877   605            709            484            555            146524         1.297561e-12 
       275   2298.1669         149594   605            710            480            559            147240         1.3003893e-12
       276   2321.9805         150328   605            710            478            562            147973         1.3033659e-12
       277   2345.9999         151035   605            709            476            565            148680         1.3061463e-12
       278   2370.1417         151766   605            710            473            568            149410         1.3090883e-12
       279   2394.4642         152495   605            710            472            569            150139         1.3119577e-12
       280   2419.2666         153204   605            710            468            573            150848         1.3148157e-12
       281   2443.9842         153937   605            710            465            576            151581         1.3177684e-12
       282   2468.8028         154649   605            710            463            578            152293         1.3205709e-12
       283   2493.8624         155377   604            710            462            580            153021         1.3235291e-12
       284   2519.0675         156082   605            709            460            583            153725         1.326347e-12 
       285   2544.3737         156801   605            709            460            583            154444         1.3292149e-12
       286   2569.8523         157511   605            709            458            585            155154         1.3320669e-12
       287   2595.5339         158244   605            709            454            589            155887         1.334982e-12 
       288   2621.3528         158951   604            709            453            591            156594         1.3378217e-12
       289   2647.3331         159684   604            710            451            593            157326         1.340745e-12 
       290   2673.8364         160378   604            711            449            595            158019         1.3434679e-12
       291   2700.1347         161108   604            712            448            597            158747         1.3464228e-12
       292   2726.5544         161820   604            712            447            598            159459         1.349204e-12 
       293   2753.1996         162554   603            711            447            600            160193         1.3521922e-12
       294   2779.9668         163258   604            712            445            602            160895         1.3549267e-12
       295   2806.9417         164003   604            712            443            605            161639         1.3579352e-12
       296   2834.098          164692   605            711            442            607            162327         1.3606276e-12
       297   2861.3534         165424   605            711            440            609            163059         1.3635957e-12
       298   2888.7724         166119   606            711            440            609            163753         1.3663586e-12
       299   2916.3537         166856   606            713            438            611            164488         1.3692971e-12
       300   2944.4794         167568   606            713            438            611            165200         1.3721272e-12
Loop time of 2944.48 on 16 procs for 300 steps with 167568 atoms

96.6% CPU use with 16 MPI tasks x 1 OpenMP threads

MPI task timing breakdown:
Section |  min time  |  avg time  |  max time  |%varavg| %total
---------------------------------------------------------------
Pair    | 882.19     | 969.76     | 1076.4     | 175.3 | 32.93
Neigh   | 728.58     | 781.1      | 869.36     | 142.8 | 26.53
Comm    | 383.13     | 392.45     | 403.84     |  29.9 | 13.33
Output  | 43.791     | 43.791     | 43.792     |   0.0 |  1.49
Modify  | 545.17     | 747.03     | 881.04     | 332.8 | 25.37
Other   |            | 10.35      |            |       |  0.35

Nlocal:          10473 ave       10901 max       10119 min
Histogram: 2 1 2 4 1 1 1 2 0 2
Nghost:        8065.19 ave        8322 max        7912 min
Histogram: 1 4 3 3 1 1 0 1 1 1
Neighs:         128843 ave      137957 max      120578 min
Histogram: 1 2 0 6 1 2 0 0 2 2

Total # of neighbors = 2061488
Ave neighs/atom = 12.302397
Neighbor list builds = 26363
Dangerous builds = 26063

Total wall time: 0:49:36
