LAMMPS (23 Jun 2022 - Update 4)
  using 1 OpenMP thread(s) per MPI task
package omp 0
using multi-threaded neighbor list subroutines
#-----------------------------------------------------------------------------#
#                NUFEB Simulation: Heterotrophic Biofilm Growth               #
#-----------------------------------------------------------------------------#


#-----------------------------System Settings---------------------------------#

units si                                    # using si units (m, s, kg)
atom_style      coccus                      # using nufeb coccus atom style
atom_modify     map array sort 10 0         # map array - find atoms using indices
		                            # sort every 10

boundary        pp pp ff                    # periodic boundaries in x and y
                                            # fixed boundary in z

newton          off                         # forces between local and ghost
                                            # atoms are computed in each
					     # processor without communication

processors      * * 1                       # processor grid

comm_modify     vel yes                     # communicate velocities for ghost atoms

read_data       atom_ch.in	             # read atom.in file which defines domain size
Reading data file ...
  orthogonal box = (0 0 0) to (6e-05 6e-05 6e-05)
  4 by 4 by 1 MPI processor grid
  reading atoms ...
  150 atoms
  read_data CPU = 0.025 seconds
                                            # and initial atoms


#--------------------Microbes and Functional Groups-------------------------#

group           CROSS1   type 1               # assign type 1,2 atoms to CROSS group
50 atoms in group CROSS1
group           CROSS2   type 2
50 atoms in group CROSS2
group		CHEATER  type 3
50 atoms in group CHEATER
group           dead     type 4
0 atoms in group dead
group		EPS	 type 5
0 atoms in group EPS

neighbor        5e-7 bin                   # setting neighbour skin distance and style

neigh_modify    check yes                  # rebuild neighbour list if any atom
                                           # had moved more than half the skin distance


#--------------------------Mesh Grid and Substrates--------------------------#

# defining grid sytle, substrate names, and grid size
grid_style      nufeb/chemostat 3 sub metab1 metab2 5e-6

# set diffusion boundary conditions and initial concentrations (liquid:kg/m3)
grid_modify     set sub      pp pp nd  1.8e-4
No /omp style for force computation currently active
grid_modify     set metab1   pp pp nd  1e-4
No /omp style for force computation currently active
grid_modify     set metab2   pp pp nd  1e-4
No /omp style for force computation currently active


#--------------------------Biological Processes-------------------------------#

# heterotrophs growth
fix growth_cross1 CROSS1 nufeb/growth/cross1 sub 3.5e-5 metab2 4e-3 metab1 growth 0.009 yield 0.6 decay 2.6e-6 metab1_exp 20 epsyield 0.12 epsdens 30

fix growth_cross2 CROSS2 nufeb/growth/cross2 sub 3.5e-5 metab1 4e-3 metab2 growth 0.009 yield 0.6 decay 2.6e-6 metab2_exp 20 epsyield 0.12 epsdens 30

fix growth_cheater CHEATER nufeb/growth/cheater sub 3.5e-5 metab1 1e-3 metab2 1e-3 growth 0.009 yield 0.6 decay 2.6e-6 epsyield 0.12 epsdens 30

# heterotrophs division, division diameter: 1.36e-6
fix div1 CROSS1 nufeb/division/coccus 1.36e-6 392
fix div2 CROSS2 nufeb/division/coccus 1.36e-6 1262
fix div3 CHEATER nufeb/division/coccus 1.36e-6 2710

fix death1 CROSS1 nufeb/death/diameter dead 5.43e-7
fix death2 CROSS2 nufeb/death/diameter dead 5.43e-7
fix death3 CHEATER nufeb/death/diameter dead 5.43e-7

# EPS secretion from heterotrophs
fix eps1 CROSS1 nufeb/eps_secretion 5 EPS 1.1 30 4736
fix eps2 CROSS2 nufeb/eps_secretion 5 EPS 1.1 30 7340
fix eps3 CROSS2 nufeb/eps_secretion 5 EPS 1.1 30 10522
#---------------------------Physical Processes--------------------------------#

pair_style  gran/hooke/history 1e-4 NULL 1e-5 NULL 0.0 0    # pairwise interaction
pair_coeff  * *                                             # between atoms

# pairwise interaction between z-wall and atoms
fix wall all wall/gran hooke/history 1e-3 NULL 1e-4 NULL 0 0 zplane 0.0 1e-04

fix vis all viscous 1e-5                                    # viscous damping force

fix grav all gravity 9.81 vector 0.0 0.0 -1.0

fix nve all nve/limit 1e-7                                  # NVE integration with
                                                            # maximum distance limit


#---------------------------Post-Physical Processes---------------------------#

fix coeff_sub all nufeb/diffusion_coeff sub ratio 0.8       # defining diffusion coeff in the biofilm
fix coeff_metab1 all nufeb/diffusion_coeff metab1 ratio 0.8    # region is 80% of the value in liquid
fix coeff_metab2 all nufeb/diffusion_coeff metab2 ratio 0.8

#---------------------------Chemical Processes---------------------------------#

fix diff_sub all nufeb/diffusion_reaction sub 1e-9        # diffusion reaction for updating
fix diff_metab1 all nufeb/diffusion_reaction metab1 4e-9     # distribusion of substrate concentration
fix diff_metab2 all nufeb/diffusion_reaction metab2 4e-9

#--------------------------Computations and Outputs----------------------------#

variable mass equal "mass(all)"                             # total mass
variable ncross1 equal "count(CROSS1)"                      # total # of CROSS1
variable ncross2 equal "count(CROSS2)"                      # total # of CROSS2
variable ncheater equal "count(CHEATER)"
variable ndead equal "count(dead)"
variable neps equal "count(EPS)"

shell mkdir vtk_CHEPS_ch                                            # dump vtk files to /vtk folder
dump du1 all vtk 10 vtk_CHEPS_ch/dump*.vtu id type diameter         # require build NUFEB with vtk option
dump du2 all grid/vtk 10 vtk_CHEPS_ch/dump_%_*.vti con rea den gro

#dump du3 all movie 10 movie.avi type diameter view 80 60    # dump video
#dump_modify du3 acolor 1 blue acolor 2 lightgrey framerate 10


                                                            # dump hdf5 files to /hdf5 folder
#shell mkdir hdf5                                           # require build NUFEB with hdf5 option
#dump du3 all nufeb/hdf5 10 dump.h5 id type x y z vx vy vz fx fy fz radius conc reac

thermo_style custom step cpu atoms v_ncross1 v_ncross2 v_ncheater v_ndead v_neps v_mass     # screen and log outputs
thermo 1
thermo_modify   lost ignore

#-----------------------------------Run----------------------------------------#

# issue run command, define timesteps for physical (pairdt) and chemical (diffdt) processes
run_style nufeb diffdt 1e-4 difftol 1e-6 pairdt 1e-2 pairtol 1 pairmax 1000 diffmax 5000

timestep 12000                                               # define biological timesteps (1000s)

run 300                                                    # growing biofilm for 900x1000s
Generated 0 of 6 mixed pair_coeff terms from geometric mixing rule
Last active /omp style is pair_style gran/hooke/history/omp
Neighbor list info ...
  update every 1 steps, delay 10 steps, check yes
  max neighbors/atom: 2000, page size: 100000
  master list distance cutoff = 2.49e-06
  ghost atom cutoff = 2.49e-06
  binsize = 1.245e-06, bins = 49 49 49
  1 neighbor lists, perpetual/occasional/extra = 1 0 0
  (1) pair gran/hooke/history/omp, perpetual
      attributes: half, newton off, size, history, omp
      pair build: half/size/bin/newtoff/omp
      stencil: full/bin/3d
      bin: standard
Per MPI rank memory allocation (min/avg/max) = 11.02 | 11.02 | 11.02 Mbytes
   Step          CPU          Atoms      v_ncross1      v_ncross2      v_ncheater      v_ndead         v_neps         v_mass    
         0   0                    150   50             50             50             0              0              1.3295396e-13
         1   0.38968387           493   90             85             83             0              235            1.6434369e-13
         2   0.75393034           910   120            126            122            0              542            1.8164824e-13
         3   1.0507701           1253   130            144            139            0              840            1.9578693e-13
         4   1.3310841           1603   138            155            149            0              1161           2.0899364e-13
         5   1.504621            1926   139            162            156            0              1469           2.2165962e-13
         6   1.6540804           2258   145            166            160            0              1787           2.3411969e-13
         7   1.7924275           2616   156            178            164            0              2118           2.4631829e-13
         8   1.9026706           2972   163            189            175            0              2445           2.5815656e-13
         9   2.0304867           3358   167            205            179            0              2807           2.698389e-13 
        10   2.1523399           3735   174            213            186            0              3162           2.8110137e-13
        11   2.2579667           4122   180            217            196            0              3529           2.9227969e-13
        12   2.3589301           4502   185            222            201            0              3894           3.0319989e-13
        13   2.4646368           4901   188            234            208            0              4271           3.1394111e-13
        14   2.5568862           5304   192            242            219            0              4651           3.2455601e-13
        15   2.6408305           5713   194            245            226            0              5048           3.3503649e-13
        16   2.7298087           6115   201            249            233            0              5432           3.4531941e-13
        17   2.8510199           6530   212            253            242            0              5823           3.5544805e-13
        18   2.9955616           6939   215            257            249            0              6218           3.6541937e-13
        19   3.083778            7351   221            266            252            0              6612           3.7505503e-13
        20   3.2467417           7757   224            272            259            0              7002           3.8456518e-13
        21   3.3493365           8169   229            273            266            0              7401           3.9384686e-13
        22   3.4452              8565   234            280            272            0              7779           4.0279444e-13
        23   3.5656097           9001   240            284            281            0              8196           4.1181464e-13
        24   3.6851653           9392   245            287            284            0              8576           4.2048362e-13
        25   3.7879271           9812   249            289            292            0              8982           4.2913333e-13
        26   3.8788953          10218   252            294            300            0              9372           4.3750378e-13
        27   3.9697392          10635   255            297            308            0              9775           4.4578512e-13
        28   4.0949387          11045   262            300            313            0              10170          4.5381948e-13
        29   4.2269441          11464   267            307            320            0              10570          4.6167736e-13
        30   4.4203071          11875   269            309            329            0              10968          4.6932475e-13
        31   4.537511           12290   271            314            332            0              11373          4.7681702e-13
        32   4.6593879          12696   274            319            342            0              11761          4.8407443e-13
        33   4.7935429          13127   279            323            349            0              12176          4.9136355e-13
        34   5.0139003          13533   284            326            357            0              12566          4.9834741e-13
        35   5.2534746          13951   285            327            363            0              12976          5.0529716e-13
        36   5.5308669          14371   290            332            368            0              13381          5.1186031e-13
        37   5.878726           14791   295            335            375            0              13786          5.1849802e-13
        38   6.484383           15210   295            338            381            0              14196          5.2494872e-13
        39   7.3128397          15640   297            341            383            0              14619          5.3112762e-13
        40   8.241118           16055   299            344            384            0              15028          5.3690538e-13
        41   9.1412467          16488   299            348            390            0              15451          5.4280413e-13
        42   10.048873          16916   301            349            395            0              15871          5.4844502e-13
        43   10.977151          17343   309            351            399            0              16284          5.5383192e-13
        44   11.916915          17783   313            354            400            0              16716          5.591834e-13 
        45   12.85989           18197   314            357            400            0              17126          5.6424038e-13
        46   13.824035          18632   315            359            404            0              17554          5.6941527e-13
        47   14.822843          19057   318            363            405            0              17971          5.7429194e-13
        48   15.817466          19493   318            365            409            0              18401          5.792186e-13 
        49   16.829452          19929   325            368            414            0              18822          5.8402855e-13
        50   56.143278          20365   328            371            416            0              19250          5.8871753e-13
        51   57.216065          20795   330            373            422            0              19670          5.9338386e-13
        52   58.329054          21243   334            374            428            0              20107          5.9798e-13   
        53   59.473354          21665   334            375            429            0              20527          6.0246133e-13
        54   60.632988          22090   336            376            432            0              20946          6.0683282e-13
        55   61.780565          22524   338            377            435            0              21374          6.1119661e-13
        56   62.991665          22961   339            381            438            0              21803          6.1548643e-13
        57   64.232099          23392   339            382            441            0              22230          6.1979138e-13
        58   65.484233          23832   341            383            443            0              22665          6.2408554e-13
        59   66.783459          24277   345            388            445            0              23099          6.2829628e-13
        60   68.169245          24706   347            390            446            0              23523          6.3236063e-13
        61   69.496885          25157   348            393            448            0              23968          6.3644521e-13
        62   70.833164          25586   349            395            453            0              24389          6.4037186e-13
        63   72.250984          26048   350            397            457            0              24844          6.4445272e-13
        64   73.664615          26488   352            400            458            0              25278          6.4836872e-13
        65   75.103338          26949   354            402            462            0              25731          6.5232959e-13
        66   76.570636          27382   356            402            464            0              26160          6.5621847e-13
        67   78.105627          27852   360            407            469            0              26616          6.6010786e-13
        68   79.648656          28305   361            409            476            0              27059          6.6392482e-13
        69   81.207433          28740   361            409            479            0              27491          6.6768195e-13
        70   82.927815          29206   363            409            483            0              27951          6.7151261e-13
        71   84.673138          29662   366            411            492            0              28393          6.7531557e-13
        72   86.380049          30117   369            414            494            0              28840          6.7888207e-13
        73   88.093215          30581   371            418            496            0              29296          6.8265855e-13
        74   89.849781          31044   371            419            498            0              29756          6.8627699e-13
        75   91.663339          31485   374            419            502            0              30190          6.8983729e-13
        76   93.513477          31939   374            421            506            0              30638          6.9358682e-13
        77   95.415217          32402   375            422            509            0              31096          6.9739632e-13
        78   97.356927          32861   377            422            512            0              31550          7.0126719e-13
        79   99.32506           33307   378            422            518            0              31989          7.0504344e-13
        80   101.46321          33775   380            423            524            0              32448          7.0915153e-13
        81   103.58189          34229   383            423            530            0              32893          7.1334782e-13
        82   105.66319          34673   383            423            534            0              33333          7.1761187e-13
        83   107.81012          35148   384            426            542            0              33796          7.219861e-13 
        84   110.01906          35597   386            427            549            0              34235          7.2633366e-13
        85   112.25754          36048   387            428            554            0              34679          7.3084815e-13
        86   114.58652          36509   389            430            564            0              35126          7.3552159e-13
        87   116.91364          36952   391            431            571            0              35559          7.4034327e-13
        88   119.33312          37426   391            432            585            0              36018          7.4528327e-13
        89   121.78902          37865   391            432            594            0              36448          7.5033403e-13
        90   124.41534          38325   392            433            604            0              36896          7.5573171e-13
        91   126.94128          38767   393            433            615            0              37326          7.6128319e-13
        92   129.62025          39216   394            434            625            0              37763          7.6696317e-13
        93   132.31422          39662   394            436            639            0              38193          7.7301599e-13
        94   135.02977          40084   394            436            648            0              38606          7.7914992e-13
        95   137.79547          40553   395            441            665            0              39052          7.8542941e-13
        96   140.59414          40982   395            442            678            0              39467          7.9195964e-13
        97   143.42381          41437   398            445            696            0              39898          7.9846614e-13
        98   146.34783          41874   398            446            711            0              40319          8.0516762e-13
        99   149.30334          42324   398            449            733            0              40744          8.1229949e-13
       100   152.4017           42753   400            452            753            0              41148          8.1945507e-13
       101   155.46688          43182   400            454            767            0              41561          8.2697705e-13
       102   158.56019          43609   401            458            783            0              41967          8.3462651e-13
       103   161.7056           44050   403            460            801            0              42386          8.4271113e-13
       104   164.85429          44468   406            462            826            0              42774          8.5059984e-13
       105   168.08792          44899   407            462            845            0              43185          8.5868824e-13
       106   171.33844          45302   409            466            861            1              43565          8.6659559e-13
       107   174.63823          45740   411            469            882            1              43977          8.7486259e-13
       108   178.04318          46160   413            471            908            2              44366          8.8319182e-13
       109   181.43673          46576   418            473            924            2              44759          8.9088252e-13
       110   185.02636          47005   421            475            941            4              45164          8.9879973e-13
       111   188.51885          47413   425            479            957            5              45547          9.0655288e-13
       112   192.07267          47829   429            485            974            5              45936          9.1445711e-13
       113   195.66981          48275   436            486            993            5              46355          9.2234798e-13
       114   199.30086          48698   437            488            1010           7              46756          9.2985018e-13
       115   203.04963          49141   439            492            1028           8              47174          9.3744528e-13
       116   206.85637          49548   441            497            1042           10             47558          9.4467404e-13
       117   210.70707          49968   445            498            1053           12             47960          9.5193199e-13
       118   214.61557          50421   451            500            1065           14             48391          9.5872979e-13
       119   218.58338          50878   454            501            1073           18             48832          9.6519737e-13
       120   222.7386           51317   460            502            1079           22             49254          9.7114192e-13
       121   226.9255           51812   462            505            1091           24             49730          9.7714332e-13
       122   231.17596          52270   464            506            1100           27             50173          9.8240353e-13
       123   235.51513          52738   467            507            1108           28             50628          9.8709011e-13
       124   239.9648           53220   469            509            1110           33             51099          9.9148044e-13
       125   244.39301          53688   473            509            1116           37             51553          9.9516642e-13
       126   249.01931          54203   476            510            1121           41             52055          9.9878996e-13
       127   253.68213          54678   479            511            1122           43             52523          1.001712e-12 
       128   258.4144           55185   483            512            1122           46             53022          1.0043244e-12
       129   263.26831          55676   486            513            1121           52             53504          1.0063454e-12
       130   268.23873          56244   490            515            1120           57             54062          1.0083674e-12
       131   273.29683          56784   493            518            1115           63             54595          1.009785e-12 
       132   278.32386          57347   494            520            1113           66             55154          1.0109594e-12
       133   283.41322          57904   495            522            1114           67             55706          1.0118666e-12
       134   288.59714          58488   495            523            1113           70             56287          1.0128065e-12
       135   293.86129          59068   496            524            1105           78             56865          1.0136142e-12
       136   299.21332          59642   498            526            1095           88             57435          1.0143357e-12
       137   304.72907          60244   499            528            1092           91             58034          1.0151309e-12
       138   310.31735          60835   499            532            1089           94             58621          1.0157525e-12
       139   316.01569          61419   499            532            1089           95             59204          1.0163612e-12
       140   321.97754          62055   502            532            1087           97             59837          1.0171329e-12
       141   327.87692          62614   503            532            1084           100            60395          1.0177396e-12
       142   333.89748          63230   503            532            1083           103            61009          1.0185895e-12
       143   340.01176          63818   504            533            1083           103            61595          1.0192971e-12
       144   346.23875          64422   504            533            1084           103            62198          1.0200851e-12
       145   352.5779           65006   504            535            1080           107            62780          1.0207912e-12
       146   359.01143          65614   505            536            1079           108            63386          1.0216657e-12
       147   365.55633          66184   505            536            1076           111            63956          1.0224482e-12
       148   372.24007          66814   506            536            1077           111            64584          1.0234628e-12
       149   379.01804          67372   506            537            1077           112            65140          1.0241834e-12
       150   386.03982          67979   506            537            1073           117            65746          1.0251649e-12
       151   393.02163          68563   508            537            1073           117            66328          1.0260372e-12
       152   400.06807          69137   508            538            1073           117            66901          1.0269253e-12
       153   407.27344          69749   508            539            1073           119            67510          1.0280111e-12
       154   414.60443          70325   509            540            1071           121            68084          1.0289672e-12
       155   422.03686          70908   511            541            1069           123            68664          1.0299376e-12
       156   429.564            71518   512            541            1066           126            69273          1.031029e-12 
       157   437.20199          72074   512            542            1062           130            69828          1.0319468e-12
       158   444.93464          72670   513            542            1063           131            70421          1.033085e-12 
       159   452.76362          73275   514            544            1064           131            71022          1.0342503e-12
       160   460.88945          73843   514            544            1064           132            71589          1.0353217e-12
       161   468.93359          74438   514            546            1064           133            72181          1.0365955e-12
       162   477.0946           75020   515            547            1061           136            72761          1.0377839e-12
       163   485.35888          75607   517            547            1061           137            73345          1.0390098e-12
       164   493.78318          76219   518            549            1058           140            73954          1.0403274e-12
       165   502.31305          76785   518            549            1057           142            74519          1.0414955e-12
       166   510.93376          77384   518            549            1056           143            75118          1.042817e-12 
       167   519.64675          77967   518            549            1052           147            75701          1.0440873e-12
       168   528.45288          78546   518            550            1050           150            76278          1.0453777e-12
       169   537.37757          79144   519            552            1049           151            76873          1.0467197e-12
       170   546.80152          79729   519            552            1045           155            77458          1.0481653e-12
       171   555.94029          80306   521            554            1044           156            78031          1.049603e-12 
       172   565.19408          80886   521            554            1041           159            78611          1.0510295e-12
       173   574.54724          81497   521            554            1040           161            79221          1.0526111e-12
       174   584.01994          82075   522            554            1035           167            79797          1.0540537e-12
       175   593.60057          82689   523            555            1032           170            80409          1.0555452e-12
       176   603.24675          83263   524            557            1032           171            80979          1.0569377e-12
       177   613.06217          83864   524            557            1031           173            81579          1.0585322e-12
       178   622.95453          84448   524            559            1029           176            82160          1.0599664e-12
       179   632.95223          85040   526            559            1029           179            82747          1.0614643e-12
       180   643.26685          85627   528            559            1028           180            83332          1.0630671e-12
       181   653.47244          86235   528            561            1028           180            83938          1.0646536e-12
       182   663.8309           86820   528            562            1026           182            84522          1.0661845e-12
       183   674.27915          87424   529            562            1025           185            85123          1.067792e-12 
       184   684.83557          88006   529            562            1023           188            85704          1.0693302e-12
       185   695.46655          88601   529            562            1017           194            86299          1.0709514e-12
       186   706.23989          89206   529            562            1015           197            86903          1.0726259e-12
       187   717.06824          89800   529            563            1017           198            87493          1.0742931e-12
       188   728.00588          90387   530            565            1018           198            88076          1.0759538e-12
       189   739.06875          90980   530            568            1017           199            88666          1.0777294e-12
       190   750.45173          91580   530            568            1013           203            89266          1.0794054e-12
       191   761.7468           92166   530            570            1007           209            89850          1.081099e-12 
       192   773.14125          92756   530            570            1004           213            90439          1.0827411e-12
       193   784.65754          93367   530            572            1002           216            91047          1.0845173e-12
       194   796.2986           93947   530            573            1000           219            91625          1.0861707e-12
       195   808.01609          94564   530            573            998            222            92241          1.0879247e-12
       196   819.86421          95143   530            573            995            226            92819          1.0895308e-12
       197   831.81535          95764   532            574            990            231            93437          1.0913445e-12
       198   843.90061          96339   532            575            988            233            94011          1.093072e-12 
       199   856.10967          96948   533            576            984            237            94618          1.0949602e-12
       200   868.64353          97545   533            578            981            242            95211          1.0967135e-12
       201   881.13504          98146   533            579            978            245            95811          1.0985045e-12
       202   893.70248          98728   533            580            975            249            96391          1.1002797e-12
       203   906.37848          99334   533            580            975            249            96997          1.1021999e-12
       204   919.16904          99918   533            580            973            252            97580          1.1040071e-12
       205   932.04463         100529   535            580            969            256            98189          1.1059479e-12
       206   945.02119         101129   535            581            966            259            98788          1.1078234e-12
       207   958.13578         101732   535            581            963            262            99391          1.1097501e-12
       208   971.37005         102345   537            581            961            264            100002         1.1116819e-12
       209   984.73251         102937   537            581            958            267            100594         1.1135972e-12
       210   998.45036         103550   538            581            957            268            101206         1.1155407e-12
       211   1012.048          104132   539            581            955            271            101786         1.1173949e-12
       212   1025.7976         104771   540            582            954            273            102422         1.1194401e-12
       213   1039.6581         105358   540            583            952            275            103008         1.1212772e-12
       214   1053.6456         105965   540            583            950            277            103615         1.1232776e-12
       215   1067.7436         106569   540            583            945            282            104219         1.1252092e-12
       216   1081.9754         107178   540            584            940            287            104827         1.1271669e-12
       217   1096.3422         107784   541            584            938            289            105432         1.1292158e-12
       218   1110.8155         108395   541            586            937            291            106040         1.1311446e-12
       219   1125.4405         109012   541            589            937            292            106653         1.133218e-12 
       220   1140.4291         109626   541            589            937            294            107265         1.1351938e-12
       221   1155.291          110224   541            591            935            296            107861         1.1372601e-12
       222   1170.2655         110841   542            592            932            299            108476         1.1393895e-12
       223   1185.3578         111452   542            594            930            302            109084         1.1415582e-12
       224   1200.577          112069   545            594            925            307            109698         1.143689e-12 
       225   1215.8886         112668   546            594            921            311            110296         1.1458202e-12
       226   1231.3287         113289   547            594            915            318            110915         1.1481271e-12
       227   1246.8992         113896   548            594            917            320            111517         1.1503554e-12
       228   1262.5815         114524   548            595            915            322            112144         1.1527139e-12
       229   1278.3953         115126   548            595            910            327            112746         1.1550493e-12
       230   1294.6181         115745   548            596            909            332            113360         1.1575927e-12
       231   1310.7352         116358   548            597            906            336            113971         1.1604034e-12
       232   1326.921          116980   548            597            903            342            114590         1.1633979e-12
       233   1343.2171         117574   548            597            903            345            115181         1.1663805e-12
       234   1359.6893         118183   548            597            904            348            115786         1.169564e-12 
       235   1376.3289         118801   548            597            909            351            116396         1.1730005e-12
       236   1393.0765         119402   548            597            913            353            116991         1.176776e-12 
       237   1409.982          120014   548            600            916            355            117595         1.1809045e-12
       238   1426.9687         120625   548            600            923            358            118196         1.1853208e-12
       239   1444.1497         121239   548            601            930            359            118801         1.1897301e-12
       240   1461.8089         121827   548            602            935            365            119377         1.1946146e-12
       241   1479.3312         122454   549            602            945            368            119990         1.2002101e-12
       242   1496.9297         123042   549            603            953            369            120568         1.2062299e-12
       243   1514.5975         123639   550            604            963            373            121149         1.2126528e-12
       244   1532.3893         124220   549            604            981            377            121709         1.2195962e-12
       245   1550.3032         124800   550            604            995            382            122269         1.2267604e-12
       246   1568.3168         125373   551            606            1002           389            122825         1.2339996e-12
       247   1586.5133         125941   552            608            1018           394            123369         1.2414479e-12
       248   1604.7701         126522   554            610            1026           403            123929         1.2490533e-12
       249   1623.263          127064   555            612            1038           409            124450         1.2566128e-12
       250   1642.1563         127624   559            614            1044           423            124984         1.264292e-12 
       251   1660.904          128141   559            619            1055           433            125475         1.2716355e-12
       252   1679.6427         128700   562            623            1054           446            126015         1.2786236e-12
       253   1698.5562         129224   564            628            1061           452            126519         1.2854613e-12
       254   1717.6101         129752   566            634            1074           462            127016         1.2918933e-12
       255   1736.7679         130288   571            639            1078           470            127530         1.2978435e-12
       256   1756.1001         130854   573            641            1080           484            128076         1.303258e-12 
       257   1775.4543         131403   578            647            1076           494            128608         1.3081865e-12
       258   1794.9488         131938   582            652            1064           510            129130         1.3124253e-12
       259   1814.5922         132498   585            653            1055           523            129682         1.3163306e-12
       260   1834.5386         133051   587            656            1042           543            130223         1.3198074e-12
       261   1854.2976         133633   587            659            1032           554            130801         1.3229714e-12
       262   1874.1082         134225   589            663            1019           567            131387         1.3259025e-12
       263   1894.0471         134854   592            665            1013           573            132011         1.3285748e-12
       264   1914.0778         135505   596            667            1006           582            132654         1.331104e-12 
       265   1934.3398         136132   596            668            997            592            133279         1.3335028e-12
       266   1954.6901         136847   597            671            986            605            133988         1.3358787e-12
       267   1975.1585         137520   598            671            971            621            134659         1.3379637e-12
       268   1995.7941         138225   597            670            969            627            135362         1.3400799e-12
       269   2016.5589         138936   599            670            962            634            136071         1.342105e-12 
       270   2037.7779         139641   599            670            947            650            136775         1.3441315e-12
       271   2059.0246         140365   599            670            940            659            137497         1.3462429e-12
       272   2080.3671         141074   600            670            931            668            138205         1.3482958e-12
       273   2101.836          141804   601            670            924            675            138934         1.3504791e-12
       274   2123.5065         142536   601            671            919            680            139665         1.3527635e-12
       275   2145.3294         143261   602            671            909            690            140389         1.3549612e-12
       276   2167.3331         143982   603            673            905            694            141107         1.3572531e-12
       277   2189.4951         144709   603            673            898            701            141834         1.3594744e-12
       278   2211.7877         145414   602            673            892            709            142538         1.3617298e-12
       279   2234.2805         146150   603            674            887            714            143272         1.3640194e-12
       280   2257.314          146856   603            674            881            721            143977         1.3662773e-12
       281   2280.2034         147580   604            675            879            723            144699         1.3685991e-12
       282   2303.2149         148276   604            675            872            730            145395         1.3708554e-12
       283   2326.4446         148993   604            675            869            733            146112         1.3731816e-12
       284   2349.7649         149708   608            674            866            737            146823         1.375497e-12 
       285   2373.2816         150429   609            674            864            739            147543         1.3778268e-12
       286   2397.0043         151146   609            675            861            742            148259         1.3801645e-12
       287   2420.8301         151891   610            675            858            746            149002         1.3826608e-12
       288   2444.7734         152548   611            676            855            749            149657         1.3847996e-12
       289   2468.8838         153315   612            676            852            752            150423         1.3873903e-12
       290   2493.4956         153979   612            676            849            756            151086         1.3895844e-12
       291   2518.0803         154726   612            677            844            763            151830         1.3921577e-12
       292   2542.7657         155420   612            678            841            767            152522         1.3944677e-12
       293   2567.6166         156149   612            678            840            769            153250         1.3969349e-12
       294   2592.5822         156835   612            678            838            771            153936         1.399231e-12 
       295   2617.696          157577   612            679            836            773            154677         1.4017604e-12
       296   2642.9432         158269   612            680            834            775            155368         1.404092e-12 
       297   2668.3766         158998   612            680            831            780            156095         1.4065665e-12
       298   2693.9984         159688   612            680            831            780            156785         1.4089614e-12
       299   2719.7209         160414   613            680            826            785            157510         1.4113941e-12
       300   2745.9397         161096   613            681            823            788            158191         1.413702e-12 
Loop time of 2745.94 on 16 procs for 300 steps with 161096 atoms

96.2% CPU use with 16 MPI tasks x 1 OpenMP threads

MPI task timing breakdown:
Section |  min time  |  avg time  |  max time  |%varavg| %total
---------------------------------------------------------------
Pair    | 810.97     | 910.55     | 974.06     | 161.3 | 33.16
Neigh   | 680.1      | 744.09     | 839.39     | 144.9 | 27.10
Comm    | 358.26     | 362.22     | 365.51     |  12.9 | 13.19
Output  | 43.935     | 43.935     | 43.936     |   0.0 |  1.60
Modify  | 529.52     | 674.64     | 837.13     | 317.4 | 24.57
Other   |            | 10.52      |            |       |  0.38

Nlocal:        10068.5 ave       10583 max        9618 min
Histogram: 1 1 2 2 4 2 2 0 0 2
Nghost:        7774.38 ave        8153 max        7519 min
Histogram: 1 4 2 2 0 4 2 0 0 1
Neighs:         123914 ave      134655 max      115227 min
Histogram: 2 0 3 2 3 2 2 0 0 2

Total # of neighbors = 1982623
Ave neighs/atom = 12.30709
Neighbor list builds = 26464
Dangerous builds = 26164

Total wall time: 0:45:46
