LAMMPS (23 Jun 2022 - Update 4)
  using 1 OpenMP thread(s) per MPI task
package omp 0
using multi-threaded neighbor list subroutines
#-----------------------------------------------------------------------------#
#                NUFEB Simulation: Heterotrophic Biofilm Growth               #
#-----------------------------------------------------------------------------#


#-----------------------------System Settings---------------------------------#

units si                                    # using si units (m, s, kg)
atom_style      coccus                      # using nufeb coccus atom style
atom_modify     map array sort 10 0         # map array - find atoms using indices
		                            # sort every 10

boundary        pp pp ff                    # periodic boundaries in x and y
                                            # fixed boundary in z

newton          off                         # forces between local and ghost
                                            # atoms are computed in each
					     # processor without communication

processors      * * 1                       # processor grid

comm_modify     vel yes                     # communicate velocities for ghost atoms

read_data       atom_ch.in	             # read atom.in file which defines domain size
Reading data file ...
  orthogonal box = (0 0 0) to (6e-05 6e-05 6e-05)
  4 by 4 by 1 MPI processor grid
  reading atoms ...
  150 atoms
  read_data CPU = 0.024 seconds
                                            # and initial atoms


#--------------------Microbes and Functional Groups-------------------------#

group           CROSS1   type 1               # assign type 1,2 atoms to CROSS group
50 atoms in group CROSS1
group           CROSS2   type 2
50 atoms in group CROSS2
group		CHEATER  type 3
50 atoms in group CHEATER
group           dead     type 4
0 atoms in group dead
group		EPS	 type 5
0 atoms in group EPS

neighbor        5e-7 bin                   # setting neighbour skin distance and style

neigh_modify    check yes                  # rebuild neighbour list if any atom
                                           # had moved more than half the skin distance


#--------------------------Mesh Grid and Substrates--------------------------#

# defining grid sytle, substrate names, and grid size
grid_style      nufeb/chemostat 3 sub metab1 metab2 5e-6

# set diffusion boundary conditions and initial concentrations (liquid:kg/m3)
grid_modify     set sub      pp pp nd  1.8e-4
No /omp style for force computation currently active
grid_modify     set metab1   pp pp nd  1e-4
No /omp style for force computation currently active
grid_modify     set metab2   pp pp nd  1e-4
No /omp style for force computation currently active


#--------------------------Biological Processes-------------------------------#

# heterotrophs growth
fix growth_cross1 CROSS1 nufeb/growth/cross1 sub 3.5e-5 metab2 4e-3 metab1 growth 0.009 yield 0.6 decay 2.6e-6 metab1_exp 20 epsyield 0.12 epsdens 30

fix growth_cross2 CROSS2 nufeb/growth/cross2 sub 3.5e-5 metab1 4e-3 metab2 growth 0.009 yield 0.6 decay 2.6e-6 metab2_exp 20 epsyield 0.12 epsdens 30

fix growth_cheater CHEATER nufeb/growth/cheater sub 3.5e-5 metab1 1e-3 metab2 1e-3 growth 0.009 yield 0.6 decay 2.6e-6 epsyield 0.12 epsdens 30

# heterotrophs division, division diameter: 1.36e-6
fix div1 CROSS1 nufeb/division/coccus 1.36e-6 464
fix div2 CROSS2 nufeb/division/coccus 1.36e-6 1550
fix div3 CHEATER nufeb/division/coccus 1.36e-6 3358

fix death1 CROSS1 nufeb/death/diameter dead 5.43e-7
fix death2 CROSS2 nufeb/death/diameter dead 5.43e-7
fix death3 CHEATER nufeb/death/diameter dead 5.43e-7

# EPS secretion from heterotrophs
fix eps1 CROSS1 nufeb/eps_secretion 5 EPS 1.1 30 5888
fix eps2 CROSS2 nufeb/eps_secretion 5 EPS 1.1 30 9140
fix eps3 CROSS2 nufeb/eps_secretion 5 EPS 1.1 30 13114
#---------------------------Physical Processes--------------------------------#

pair_style  gran/hooke/history 1e-4 NULL 1e-5 NULL 0.0 0    # pairwise interaction
pair_coeff  * *                                             # between atoms

# pairwise interaction between z-wall and atoms
fix wall all wall/gran hooke/history 1e-3 NULL 1e-4 NULL 0 0 zplane 0.0 1e-04

fix vis all viscous 1e-5                                    # viscous damping force

fix grav all gravity 9.81 vector 0.0 0.0 -1.0

fix nve all nve/limit 1e-7                                  # NVE integration with
                                                            # maximum distance limit


#---------------------------Post-Physical Processes---------------------------#

fix coeff_sub all nufeb/diffusion_coeff sub ratio 0.8       # defining diffusion coeff in the biofilm
fix coeff_metab1 all nufeb/diffusion_coeff metab1 ratio 0.8    # region is 80% of the value in liquid
fix coeff_metab2 all nufeb/diffusion_coeff metab2 ratio 0.8

#---------------------------Chemical Processes---------------------------------#

fix diff_sub all nufeb/diffusion_reaction sub 1e-9        # diffusion reaction for updating
fix diff_metab1 all nufeb/diffusion_reaction metab1 4e-9     # distribusion of substrate concentration
fix diff_metab2 all nufeb/diffusion_reaction metab2 4e-9

#--------------------------Computations and Outputs----------------------------#

variable mass equal "mass(all)"                             # total mass
variable ncross1 equal "count(CROSS1)"                      # total # of CROSS1
variable ncross2 equal "count(CROSS2)"                      # total # of CROSS2
variable ncheater equal "count(CHEATER)"
variable ndead equal "count(dead)"
variable neps equal "count(EPS)"

shell mkdir vtk_CHEPS_ch                                            # dump vtk files to /vtk folder
dump du1 all vtk 10 vtk_CHEPS_ch/dump*.vtu id type diameter         # require build NUFEB with vtk option
dump du2 all grid/vtk 10 vtk_CHEPS_ch/dump_%_*.vti con rea den gro

#dump du3 all movie 10 movie.avi type diameter view 80 60    # dump video
#dump_modify du3 acolor 1 blue acolor 2 lightgrey framerate 10


                                                            # dump hdf5 files to /hdf5 folder
#shell mkdir hdf5                                           # require build NUFEB with hdf5 option
#dump du3 all nufeb/hdf5 10 dump.h5 id type x y z vx vy vz fx fy fz radius conc reac

thermo_style custom step cpu atoms v_ncross1 v_ncross2 v_ncheater v_ndead v_neps v_mass     # screen and log outputs
thermo 1
thermo_modify   lost ignore

#-----------------------------------Run----------------------------------------#

# issue run command, define timesteps for physical (pairdt) and chemical (diffdt) processes
run_style nufeb diffdt 1e-4 difftol 1e-6 pairdt 1e-2 pairtol 1 pairmax 1000 diffmax 5000

timestep 12000                                               # define biological timesteps (1000s)

run 300                                                    # growing biofilm for 900x1000s
Generated 0 of 6 mixed pair_coeff terms from geometric mixing rule
Last active /omp style is pair_style gran/hooke/history/omp
Neighbor list info ...
  update every 1 steps, delay 10 steps, check yes
  max neighbors/atom: 2000, page size: 100000
  master list distance cutoff = 2.49e-06
  ghost atom cutoff = 2.49e-06
  binsize = 1.245e-06, bins = 49 49 49
  1 neighbor lists, perpetual/occasional/extra = 1 0 0
  (1) pair gran/hooke/history/omp, perpetual
      attributes: half, newton off, size, history, omp
      pair build: half/size/bin/newtoff/omp
      stencil: full/bin/3d
      bin: standard
Per MPI rank memory allocation (min/avg/max) = 11.02 | 11.02 | 11.02 Mbytes
   Step          CPU          Atoms      v_ncross1      v_ncross2      v_ncheater      v_ndead         v_neps         v_mass    
         0   0                    150   50             50             50             0              0              1.3295396e-13
         1   0.39231833           486   90             85             83             0              228            1.6426529e-13
         2   0.76551406           896   120            124            125            0              527            1.8159233e-13
         3   1.0634408           1248   131            146            142            0              829            1.9595335e-13
         4   1.3474405           1587   139            156            152            0              1140           2.0915024e-13
         5   1.5248934           1916   142            161            162            0              1451           2.218595e-13 
         6   1.6678756           2271   150            175            167            0              1779           2.3418323e-13
         7   1.8005797           2610   154            181            170            0              2105           2.4625726e-13
         8   1.9173304           2967   164            187            174            0              2442           2.5811514e-13
         9   2.0624182           3342   171            193            183            0              2795           2.6968552e-13
        10   2.2014713           3718   179            200            188            0              3151           2.8087965e-13
        11   2.3164833           4094   184            206            200            0              3504           2.918392e-13 
        12   2.4243209           4466   187            211            205            0              3863           3.0256415e-13
        13   2.5445045           4848   196            216            207            0              4229           3.1305152e-13
        14   2.6731988           5244   201            222            213            0              4608           3.2330168e-13
        15   2.764503            5638   204            232            219            0              4983           3.3327816e-13
        16   2.8818185           6043   211            241            223            0              5368           3.4306425e-13
        17   2.9663445           6437   215            249            230            0              5743           3.5258298e-13
        18   3.0744813           6841   220            254            234            0              6133           3.6191806e-13
        19   3.1502169           7250   228            258            242            0              6522           3.7109954e-13
        20   3.2995092           7680   235            264            250            0              6931           3.8010845e-13
        21   3.3728073           8100   241            270            256            0              7333           3.8885933e-13
        22   3.4462002           8506   244            279            263            0              7720           3.9737337e-13
        23   3.5150192           8941   248            284            266            0              8143           4.0594034e-13
        24   3.6170629           9358   256            288            271            0              8543           4.1416073e-13
        25   3.7375443           9781   261            290            276            0              8954           4.2235447e-13
        26   3.8552942          10190   265            293            282            0              9350           4.3018515e-13
        27   3.9363315          10587   267            299            283            0              9738           4.3775599e-13
        28   4.027217           11027   270            302            290            0              10165          4.4543026e-13
        29   4.1605133          11442   276            305            295            0              10566          4.5303707e-13
        30   4.3414916          11855   279            308            305            0              10963          4.6018288e-13
        31   4.4840042          12278   285            310            313            0              11370          4.6721898e-13
        32   4.6100775          12708   290            313            317            0              11788          4.7425887e-13
        33   4.7577392          13139   294            316            325            0              12204          4.8112734e-13
        34   4.9157223          13554   297            321            327            0              12609          4.8770604e-13
        35   5.1510942          13981   299            323            333            0              13026          4.9421993e-13
        36   5.4087859          14394   302            325            334            0              13433          5.0044372e-13
        37   5.7881587          14822   304            327            339            0              13852          5.0658131e-13
        38   6.269978           15246   309            328            341            0              14268          5.1257671e-13
        39   7.0801911          15662   312            330            342            0              14678          5.1842703e-13
        40   7.9588978          16091   315            333            348            0              15095          5.240855e-13 
        41   8.7884204          16508   316            335            349            0              15508          5.2957064e-13
        42   9.5691986          16938   319            340            351            0              15928          5.3500507e-13
        43   10.44864           17369   325            340            355            0              16349          5.4033196e-13
        44   11.342524          17818   330            347            359            0              16782          5.4559144e-13
        45   12.279401          18258   335            349            361            0              17213          5.5068044e-13
        46   13.222743          18690   337            350            365            0              17638          5.5561256e-13
        47   14.161696          19147   342            351            368            0              18086          5.606094e-13 
        48   15.124116          19565   344            353            370            0              18498          5.6529584e-13
        49   16.121462          20030   346            357            373            0              18954          5.7016215e-13
        50   17.222594          20465   348            360            377            0              19380          5.7480031e-13
        51   18.270418          20915   351            361            382            0              19821          5.7947537e-13
        52   19.328684          21348   353            364            385            0              20246          5.8389396e-13
        53   20.418822          21804   355            366            387            0              20696          5.8839901e-13
        54   21.533454          22235   357            366            393            0              21119          5.9267007e-13
        55   22.67022           22693   359            369            398            0              21567          5.97192e-13  
        56   23.82307           23135   361            372            401            0              22001          6.014667e-13 
        57   25.011238          23585   363            373            404            0              22445          6.0577218e-13
        58   26.213673          24033   367            377            406            0              22883          6.0999794e-13
        59   27.449909          24479   368            379            407            0              23325          6.1420164e-13
        60   57.762864          24935   373            380            408            0              23774          6.1836624e-13
        61   59.056532          25390   374            382            410            0              24224          6.2249552e-13
        62   60.415945          25848   376            384            414            0              24674          6.2656281e-13
        63   61.764078          26298   380            386            415            0              25117          6.3050997e-13
        64   63.150992          26762   382            388            421            0              25571          6.3449634e-13
        65   64.552454          27222   385            392            423            0              26022          6.3827878e-13
        66   66.00108           27693   386            393            426            0              26488          6.4209452e-13
        67   67.484973          28140   389            394            431            0              26926          6.4568718e-13
        68   68.977127          28609   390            395            434            0              27390          6.4935408e-13
        69   70.504055          29092   394            399            440            0              27859          6.5302186e-13
        70   72.149243          29549   395            401            444            0              28309          6.5658262e-13
        71   73.859349          30006   397            402            444            0              28763          6.6013364e-13
        72   75.519968          30475   398            404            446            0              29227          6.6349739e-13
        73   77.207555          30946   398            405            447            0              29696          6.6680366e-13
        74   78.926068          31418   401            407            451            0              30159          6.6997139e-13
        75   80.679788          31872   401            408            451            0              30612          6.7316724e-13
        76   82.476363          32351   404            409            453            0              31085          6.7635389e-13
        77   84.30283           32805   405            409            456            0              31535          6.793018e-13 
        78   86.174956          33288   405            411            458            0              32014          6.8244171e-13
        79   88.093383          33749   407            413            459            0              32470          6.8558461e-13
        80   90.146956          34221   408            417            465            0              32931          6.8875781e-13
        81   92.145858          34700   410            417            467            0              33406          6.9205814e-13
        82   94.180463          35158   410            419            469            0              33860          6.9530879e-13
        83   96.264861          35630   412            420            471            0              34327          6.9877416e-13
        84   98.355625          36096   412            422            474            0              34788          7.0224582e-13
        85   100.51629          36564   412            422            481            0              35249          7.0574109e-13
        86   102.73127          37042   415            422            483            0              35722          7.0940545e-13
        87   105.00515          37514   416            423            492            0              36183          7.1309017e-13
        88   107.34053          37975   417            425            496            0              36637          7.1698768e-13
        89   109.74865          38467   418            426            502            0              37121          7.2120116e-13
        90   112.23478          38922   419            427            509            0              37567          7.2548174e-13
        91   114.70167          39399   420            428            514            0              38037          7.3000604e-13
        92   117.26641          39866   422            429            523            0              38492          7.3469682e-13
        93   119.88649          40328   422            430            534            0              38942          7.3970082e-13
        94   122.58243          40806   424            432            540            0              39410          7.4513365e-13
        95   125.32818          41247   424            432            552            0              39839          7.5058933e-13
        96   128.09201          41724   425            436            564            0              40299          7.5644319e-13
        97   130.90176          42171   425            439            579            0              40728          7.6249995e-13
        98   133.83376          42648   425            440            593            0              41190          7.6905426e-13
        99   136.74377          43071   425            442            606            0              41598          7.759151e-13 
       100   140.23824          43556   425            444            620            1              42066          7.8329585e-13
       101   143.23584          43983   426            447            636            1              42473          7.9045732e-13
       102   146.28275          44441   426            450            666            1              42898          7.9783441e-13
       103   149.32307          44929   427            455            683            1              43363          8.0548646e-13
       104   152.46973          45360   427            456            698            1              43778          8.1310729e-13
       105   155.68018          45810   427            459            711            2              44211          8.209117e-13 
       106   158.90415          46244   428            463            726            2              44625          8.2836963e-13
       107   162.15216          46673   429            466            740            3              45035          8.3571744e-13
       108   165.50819          47158   430            476            764            3              45485          8.4322476e-13
       109   168.90384          47586   431            477            776            4              45898          8.5033226e-13
       110   172.51537          48035   435            480            794            4              46322          8.5714237e-13
       111   176.00427          48472   435            484            808            4              46741          8.6364684e-13
       112   179.58649          48924   437            488            823            4              47172          8.7015694e-13
       113   183.28565          49363   438            492            835            6              47592          8.7626716e-13
       114   187.02941          49805   439            497            847            6              48016          8.8228941e-13
       115   190.79616          50274   447            505            853            11             48458          8.8814875e-13
       116   194.68041          50717   449            508            864            12             48884          8.9348397e-13
       117   198.52308          51166   453            512            872            12             49317          8.984275e-13 
       118   202.48591          51647   458            515            876            15             49783          9.0336728e-13
       119   206.51068          52103   462            517            885            18             50221          9.0789458e-13
       120   210.8248           52568   467            521            890            20             50670          9.1207646e-13
       121   215.02307          53053   470            523            892            22             51146          9.157949e-13 
       122   219.28244          53571   475            528            894            24             51650          9.1930603e-13
       123   223.62657          54039   476            529            892            29             52113          9.223703e-13 
       124   228.05428          54561   480            532            889            34             52626          9.2537903e-13
       125   232.51515          55070   480            534            887            38             53131          9.2783514e-13
       126   237.04872          55613   483            535            884            42             53669          9.3019183e-13
       127   241.62694          56152   484            538            881            47             54202          9.3213935e-13
       128   246.29877          56719   486            540            878            51             54764          9.3404375e-13
       129   251.04365          57292   486            541            873            56             55336          9.3584065e-13
       130   256.02649          57854   488            541            870            59             55896          9.375512e-13 
       131   260.93894          58430   490            541            864            65             56470          9.3913895e-13
       132   265.96611          58998   492            542            862            67             57035          9.4063393e-13
       133   271.08695          59584   492            543            861            69             57619          9.4203975e-13
       134   276.25103          60192   492            544            857            73             58226          9.4346508e-13
       135   281.53627          60784   492            545            854            76             58817          9.4480302e-13
       136   286.90215          61378   492            545            853            77             59411          9.4615603e-13
       137   292.37333          61988   494            547            848            82             60017          9.4754105e-13
       138   297.94874          62562   496            548            845            85             60588          9.4880254e-13
       139   303.63454          63147   496            549            844            87             61171          9.5013941e-13
       140   309.57821          63751   496            549            836            95             61775          9.5160954e-13
       141   315.44975          64330   497            549            835            96             62353          9.5289767e-13
       142   321.42059          64916   498            549            832            99             62938          9.542766e-13 
       143   327.50867          65525   498            549            830            101            63547          9.5581399e-13
       144   333.7055           66102   502            551            827            104            64118          9.5712035e-13
       145   340.02862          66705   502            551            827            104            64721          9.5871071e-13
       146   346.41934          67263   502            553            823            108            65277          9.5997806e-13
       147   352.91567          67882   503            554            821            111            65893          9.6163806e-13
       148   359.52424          68451   504            554            820            113            66460          9.6297659e-13
       149   366.24957          69068   504            555            819            114            67076          9.6462167e-13
       150   373.23719          69639   506            555            818            115            67645          9.6599179e-13
       151   380.16105          70236   506            555            817            116            68242          9.6756714e-13
       152   387.21612          70797   506            555            811            122            68803          9.689747e-13 
       153   394.36369          71392   506            557            810            123            69396          9.7055258e-13
       154   401.61366          71978   508            559            805            128            69978          9.7214109e-13
       155   408.96346          72594   508            560            806            128            70592          9.7384471e-13
       156   416.40874          73153   508            560            802            132            71151          9.7534917e-13
       157   423.94737          73769   508            560            802            132            71767          9.7716813e-13
       158   431.5972           74333   508            560            799            136            72330          9.7869419e-13
       159   439.3627           74927   512            560            799            136            72920          9.8047763e-13
       160   447.39949          75494   512            560            796            139            73487          9.8209565e-13
       161   455.35097          76104   512            560            797            140            74095          9.8393621e-13
       162   463.41847          76680   514            561            793            144            74668          9.8560462e-13
       163   471.62665          77272   514            562            790            147            75259          9.8731994e-13
       164   479.92491          77849   514            564            790            147            75834          9.8899078e-13
       165   488.34595          78437   514            564            785            152            76422          9.9076515e-13
       166   496.88168          79022   514            564            783            154            77007          9.9260056e-13
       167   505.49935          79593   515            564            780            157            77577          9.9422921e-13
       168   514.24014          80204   516            564            778            159            78187          9.9614239e-13
       169   523.096            80777   516            566            778            159            78758          9.9780975e-13
       170   532.26616          81379   516            568            775            162            79358          9.9972788e-13
       171   541.32545          81966   517            569            776            163            79941          1.0014673e-12
       172   550.53673          82567   517            570            771            169            80540          1.003368e-12 
       173   559.7963           83152   517            571            764            176            81124          1.0051647e-12
       174   569.18263          83763   517            572            759            181            81734          1.007153e-12 
       175   578.68233          84325   518            572            758            182            82295          1.0089759e-12
       176   588.30221          84926   518            573            755            186            82894          1.010978e-12 
       177   598.03284          85525   520            573            753            188            83491          1.0129289e-12
       178   607.84839          86093   522            573            752            190            84056          1.0147712e-12
       179   617.8232           86720   522            574            751            191            84682          1.0168203e-12
       180   628.0899           87299   522            574            749            193            85261          1.0187259e-12
       181   638.24237          87902   524            575            748            194            85861          1.0207672e-12
       182   648.48829          88494   524            575            747            195            86453          1.0227339e-12
       183   658.89043          89075   524            576            745            197            87033          1.0246453e-12
       184   669.36531          89670   525            577            743            199            87626          1.0266615e-12
       185   679.94967          90279   525            578            741            201            88234          1.0286868e-12
       186   690.66192          90851   525            579            740            202            88805          1.0306207e-12
       187   701.48034          91453   525            579            739            204            89406          1.0326931e-12
       188   712.39258          92050   526            580            735            208            90001          1.0347302e-12
       189   723.4201           92641   527            581            733            210            90590          1.0367977e-12
       190   734.76521          93258   528            583            731            212            91204          1.0389378e-12
       191   746.0186           93842   528            583            729            214            91788          1.0409091e-12
       192   757.36393          94443   528            585            725            218            92387          1.0430036e-12
       193   768.82571          95033   528            586            722            221            92976          1.0450543e-12
       194   780.38838          95632   528            586            720            223            93575          1.0470974e-12
       195   792.06222          96249   530            587            720            224            94188          1.049257e-12 
       196   803.83962          96840   530            587            721            224            94778          1.0513437e-12
       197   815.74965          97449   531            587            720            225            95386          1.0534235e-12
       198   827.7351           98059   531            587            718            227            95996          1.0556505e-12
       199   839.84714          98641   533            588            717            228            96575          1.0575984e-12
       200   852.32771          99267   534            589            716            229            97199          1.0599162e-12
       201   864.69053          99866   537            589            716            229            97795          1.0618574e-12
       202   877.17473         100470   537            590            716            229            98398          1.0639509e-12
       203   889.75892         101066   537            590            713            232            98994          1.0659097e-12
       204   902.46599         101693   538            591            711            234            99619          1.0680889e-12
       205   915.2887          102297   539            592            706            239            100221         1.0700423e-12
       206   928.22887         102911   539            593            703            242            100834         1.072189e-12 
       207   941.29421         103513   540            593            701            244            101435         1.0742374e-12
       208   954.4944          104136   541            594            700            245            102056         1.0764026e-12
       209   967.75718         104729   542            595            700            245            102647         1.0784376e-12
       210   981.39483         105361   542            596            698            247            103278         1.0806197e-12
       211   994.96784         105964   543            597            696            249            103879         1.0827318e-12
       212   1008.6071         106596   543            599            693            252            104509         1.0848966e-12
       213   1022.3507         107209   543            599            693            252            105122         1.0869473e-12
       214   1036.244          107815   543            600            693            252            105727         1.0890508e-12
       215   1050.2583         108443   544            600            692            254            106353         1.0911722e-12
       216   1064.365          109042   544            600            691            255            106952         1.0932089e-12
       217   1078.6049         109654   544            600            689            257            107564         1.0953072e-12
       218   1092.9646         110266   545            601            686            261            108173         1.0974681e-12
       219   1107.4688         110874   546            601            682            266            108779         1.0996018e-12
       220   1122.375          111510   548            602            680            268            109412         1.1018592e-12
       221   1137.0565         112111   548            602            675            273            110013         1.1039904e-12
       222   1151.8994         112745   548            602            669            279            110647         1.1063283e-12
       223   1166.8042         113349   548            601            667            282            111251         1.1085365e-12
       224   1181.8015         113976   548            602            663            287            111876         1.1110124e-12
       225   1197.019          114575   548            604            663            287            112473         1.1134475e-12
       226   1212.2686         115205   549            604            657            294            113101         1.1160589e-12
       227   1227.6691         115804   549            605            656            297            113697         1.1185459e-12
       228   1243.2435         116447   549            605            654            301            114338         1.1213363e-12
       229   1258.9306         117044   549            605            652            304            114934         1.1241425e-12
       230   1274.9833         117676   549            605            653            309            115560         1.1272194e-12
       231   1290.9695         118279   549            607            653            313            116157         1.1303873e-12
       232   1307.0901         118894   549            607            651            316            116771         1.1338811e-12
       233   1323.3869         119521   549            607            657            317            117391         1.1375689e-12
       234   1339.8458         120123   550            607            659            323            117984         1.1413954e-12
       235   1356.3303         120745   550            609            661            328            118597         1.1457931e-12
       236   1372.9913         121332   550            610            663            333            119176         1.1503016e-12
       237   1389.8006         121937   550            613            666            338            119770         1.1552457e-12
       238   1406.7054         122535   551            614            670            342            120358         1.1604252e-12
       239   1423.8544         123117   552            616            678            345            120926         1.1657533e-12
       240   1441.3197         123714   552            619            686            349            121508         1.171036e-12 
       241   1458.6125         124309   554            622            692            355            122086         1.1766539e-12
       242   1476.0677         124865   555            622            693            364            122631         1.1821882e-12
       243   1493.6108         125433   557            626            697            372            123181         1.188024e-12 
       244   1511.2495         126005   560            630            709            374            123732         1.1940229e-12
       245   1528.9918         126558   561            637            712            380            124268         1.1997011e-12
       246   1546.8892         127130   564            644            713            389            124820         1.2050627e-12
       247   1564.8724         127662   567            647            719            391            125338         1.2102074e-12
       248   1583.0073         128226   570            651            717            400            125888         1.2151911e-12
       249   1601.3084         128761   576            652            711            413            126409         1.2199976e-12
       250   1619.9129         129267   578            654            700            428            126907         1.2243485e-12
       251   1638.4695         129823   582            656            700            437            127448         1.2285214e-12
       252   1656.9746         130414   586            665            694            445            128024         1.2322419e-12
       253   1675.6175         130994   590            671            693            449            128591         1.2357359e-12
       254   1694.6162         131603   592            676            687            455            129193         1.2390213e-12
       255   1713.6951         132204   595            677            683            463            129786         1.242098e-12 
       256   1732.9651         132864   599            680            677            470            130438         1.2450964e-12
       257   1752.2826         133543   600            679            670            478            131116         1.2480931e-12
       258   1771.7395         134222   601            679            661            488            131793         1.2508993e-12
       259   1791.3655         134927   602            679            655            497            132494         1.2537638e-12
       260   1811.5149         135617   602            680            648            504            133183         1.2564975e-12
       261   1831.4438         136319   601            680            644            512            133882         1.2592683e-12
       262   1851.5136         137045   601            681            641            516            134606         1.2621104e-12
       263   1871.8226         137762   602            681            636            521            135322         1.2649746e-12
       264   1892.2207         138501   602            680            631            528            136060         1.2679336e-12
       265   1912.7432         139199   602            680            628            533            136756         1.2707141e-12
       266   1933.3786         139946   602            680            623            538            137503         1.2736979e-12
       267   1954.183          140648   603            680            620            541            138204         1.2765439e-12
       268   1975.0601         141353   603            680            618            543            138909         1.2793311e-12
       269   1996.1458         142085   603            683            611            550            139638         1.2822276e-12
       270   2017.7348         142778   603            684            604            557            140330         1.2849363e-12
       271   2039.0508         143510   603            684            602            559            141062         1.2877613e-12
       272   2060.4432         144220   603            686            596            565            141770         1.2906036e-12
       273   2082.0216         144952   603            685            593            569            142502         1.2934085e-12
       274   2103.8079         145661   603            685            587            576            143210         1.2961613e-12
       275   2125.8234         146387   603            685            582            581            143936         1.2989322e-12
       276   2147.9081         147077   604            686            579            584            144624         1.3015632e-12
       277   2170.1661         147820   605            686            578            585            145366         1.3043685e-12
       278   2192.5481         148497   605            686            574            589            146043         1.3068795e-12
       279   2215.0742         149253   606            686            574            589            146798         1.3097067e-12
       280   2238.101          149937   607            688            569            594            147479         1.3121416e-12
       281   2260.9707         150701   608            689            566            597            148241         1.3149376e-12
       282   2284.0259         151389   608            689            563            600            148929         1.3174037e-12
       283   2307.2928         152124   608            689            561            602            149664         1.3200695e-12
       284   2330.7701         152823   608            690            560            603            150362         1.32269e-12  
       285   2354.3917         153567   609            691            559            605            151103         1.3254474e-12
       286   2378.1723         154250   609            690            556            609            151786         1.3279913e-12
       287   2402.1428         154981   609            689            555            611            152517         1.3307675e-12
       288   2426.2548         155689   609            689            554            613            153224         1.3334522e-12
       289   2450.4992         156385   609            690            551            616            153919         1.336219e-12 
       290   2475.2974         157121   609            691            545            622            154654         1.3390099e-12
       291   2499.8858         157824   609            693            545            622            155355         1.3417896e-12
       292   2524.6527         158534   609            694            544            623            156064         1.3445642e-12
       293   2549.6253         159261   609            695            543            625            156789         1.3473687e-12
       294   2574.7843         159961   608            696            541            629            157487         1.350139e-12 
       295   2600.0482         160697   608            696            537            633            158223         1.3530113e-12
       296   2625.4745         161383   610            696            536            634            158907         1.3557456e-12
       297   2651.1202         162124   610            697            535            635            159647         1.3586545e-12
       298   2676.8745         162811   610            696            534            637            160334         1.3613503e-12
       299   2702.7847         163526   609            696            531            641            161049         1.3641849e-12
       300   2729.2263         164237   609            696            528            644            161760         1.366952e-12 
Loop time of 2729.23 on 16 procs for 300 steps with 164237 atoms

96.4% CPU use with 16 MPI tasks x 1 OpenMP threads

MPI task timing breakdown:
Section |  min time  |  avg time  |  max time  |%varavg| %total
---------------------------------------------------------------
Pair    | 874.08     | 950.36     | 1014.5     | 132.6 | 34.82
Neigh   | 706.55     | 756.66     | 820.89     | 108.7 | 27.72
Comm    | 357.57     | 365.63     | 376.65     |  27.7 | 13.40
Output  | 35.094     | 35.095     | 35.096     |   0.0 |  1.29
Modify  | 514.46     | 611.06     | 741.47     | 273.4 | 22.39
Other   |            | 10.42      |            |       |  0.38

Nlocal:        10264.8 ave       10637 max        9974 min
Histogram: 2 3 1 1 3 0 3 1 1 1
Nghost:        7903.19 ave        8105 max        7666 min
Histogram: 1 1 1 3 3 0 1 0 5 1
Neighs:         125258 ave      132859 max      119554 min
Histogram: 2 4 0 2 2 1 1 2 1 1

Total # of neighbors = 2004122
Ave neighs/atom = 12.202622
Neighbor list builds = 26428
Dangerous builds = 26128

Total wall time: 0:45:29
