LAMMPS (23 Jun 2022 - Update 4)
  using 1 OpenMP thread(s) per MPI task
package omp 0
using multi-threaded neighbor list subroutines
#-----------------------------------------------------------------------------#
#                NUFEB Simulation: Heterotrophic Biofilm Growth               #
#-----------------------------------------------------------------------------#


#-----------------------------System Settings---------------------------------#

units si                                    # using si units (m, s, kg)
atom_style      coccus                      # using nufeb coccus atom style
atom_modify     map array sort 10 0         # map array - find atoms using indices
		                            # sort every 10

boundary        pp pp ff                    # periodic boundaries in x and y
                                            # fixed boundary in z

newton          off                         # forces between local and ghost
                                            # atoms are computed in each
					     # processor without communication

processors      * * 1                       # processor grid

comm_modify     vel yes                     # communicate velocities for ghost atoms

read_data       atom_ch.in	             # read atom.in file which defines domain size
Reading data file ...
  orthogonal box = (0 0 0) to (6e-05 6e-05 6e-05)
  4 by 4 by 1 MPI processor grid
  reading atoms ...
  150 atoms
  read_data CPU = 0.012 seconds
                                            # and initial atoms


#--------------------Microbes and Functional Groups-------------------------#

group           CROSS1   type 1               # assign type 1,2 atoms to CROSS group
50 atoms in group CROSS1
group           CROSS2   type 2
50 atoms in group CROSS2
group		CHEATER  type 3
50 atoms in group CHEATER
group           dead     type 4
0 atoms in group dead
group		EPS	 type 5
0 atoms in group EPS

neighbor        5e-7 bin                   # setting neighbour skin distance and style

neigh_modify    check yes                  # rebuild neighbour list if any atom
                                           # had moved more than half the skin distance


#--------------------------Mesh Grid and Substrates--------------------------#

# defining grid sytle, substrate names, and grid size
grid_style      nufeb/chemostat 3 sub metab1 metab2 5e-6

# set diffusion boundary conditions and initial concentrations (liquid:kg/m3)
grid_modify     set sub      pp pp nd  1.8e-4
No /omp style for force computation currently active
grid_modify     set metab1   pp pp nd  1e-4
No /omp style for force computation currently active
grid_modify     set metab2   pp pp nd  1e-4
No /omp style for force computation currently active


#--------------------------Biological Processes-------------------------------#

# heterotrophs growth
fix growth_cross1 CROSS1 nufeb/growth/cross1 sub 3.5e-5 metab2 4e-3 metab1 growth 0.009 yield 0.6 decay 2.6e-6 metab1_exp 20 epsyield 0.12 epsdens 30

fix growth_cross2 CROSS2 nufeb/growth/cross2 sub 3.5e-5 metab1 4e-3 metab2 growth 0.009 yield 0.6 decay 2.6e-6 metab2_exp 20 epsyield 0.12 epsdens 30

fix growth_cheater CHEATER nufeb/growth/cheater sub 3.5e-5 metab1 1e-3 metab2 1e-3 growth 0.009 yield 0.6 decay 2.6e-6 epsyield 0.12 epsdens 30

# heterotrophs division, division diameter: 1.36e-6
fix div1 CROSS1 nufeb/division/coccus 1.36e-6 427
fix div2 CROSS2 nufeb/division/coccus 1.36e-6 1402
fix div3 CHEATER nufeb/division/coccus 1.36e-6 3025

fix death1 CROSS1 nufeb/death/diameter dead 5.43e-7
fix death2 CROSS2 nufeb/death/diameter dead 5.43e-7
fix death3 CHEATER nufeb/death/diameter dead 5.43e-7

# EPS secretion from heterotrophs
fix eps1 CROSS1 nufeb/eps_secretion 5 EPS 1.1 30 5296
fix eps2 CROSS2 nufeb/eps_secretion 5 EPS 1.1 30 8215
fix eps3 CROSS2 nufeb/eps_secretion 5 EPS 1.1 30 11782
#---------------------------Physical Processes--------------------------------#

pair_style  gran/hooke/history 1e-4 NULL 1e-5 NULL 0.0 0    # pairwise interaction
pair_coeff  * *                                             # between atoms

# pairwise interaction between z-wall and atoms
fix wall all wall/gran hooke/history 1e-3 NULL 1e-4 NULL 0 0 zplane 0.0 1e-04

fix vis all viscous 1e-5                                    # viscous damping force

fix grav all gravity 9.81 vector 0.0 0.0 -1.0

fix nve all nve/limit 1e-7                                  # NVE integration with
                                                            # maximum distance limit


#---------------------------Post-Physical Processes---------------------------#

fix coeff_sub all nufeb/diffusion_coeff sub ratio 0.8       # defining diffusion coeff in the biofilm
fix coeff_metab1 all nufeb/diffusion_coeff metab1 ratio 0.8    # region is 80% of the value in liquid
fix coeff_metab2 all nufeb/diffusion_coeff metab2 ratio 0.8

#---------------------------Chemical Processes---------------------------------#

fix diff_sub all nufeb/diffusion_reaction sub 1e-9        # diffusion reaction for updating
fix diff_metab1 all nufeb/diffusion_reaction metab1 4e-9     # distribusion of substrate concentration
fix diff_metab2 all nufeb/diffusion_reaction metab2 4e-9

#--------------------------Computations and Outputs----------------------------#

variable mass equal "mass(all)"                             # total mass
variable ncross1 equal "count(CROSS1)"                      # total # of CROSS1
variable ncross2 equal "count(CROSS2)"                      # total # of CROSS2
variable ncheater equal "count(CHEATER)"
variable ndead equal "count(dead)"
variable neps equal "count(EPS)"

shell mkdir vtk_CHEPS_ch                                            # dump vtk files to /vtk folder
dump du1 all vtk 10 vtk_CHEPS_ch/dump*.vtu id type diameter         # require build NUFEB with vtk option
dump du2 all grid/vtk 10 vtk_CHEPS_ch/dump_%_*.vti con rea den gro

#dump du3 all movie 10 movie.avi type diameter view 80 60    # dump video
#dump_modify du3 acolor 1 blue acolor 2 lightgrey framerate 10


                                                            # dump hdf5 files to /hdf5 folder
#shell mkdir hdf5                                           # require build NUFEB with hdf5 option
#dump du3 all nufeb/hdf5 10 dump.h5 id type x y z vx vy vz fx fy fz radius conc reac

thermo_style custom step cpu atoms v_ncross1 v_ncross2 v_ncheater v_ndead v_neps v_mass     # screen and log outputs
thermo 1
thermo_modify   lost ignore

#-----------------------------------Run----------------------------------------#

# issue run command, define timesteps for physical (pairdt) and chemical (diffdt) processes
run_style nufeb diffdt 1e-4 difftol 1e-6 pairdt 1e-2 pairtol 1 pairmax 1000 diffmax 5000

timestep 12000                                               # define biological timesteps (1000s)

run 300                                                    # growing biofilm for 900x1000s
Generated 0 of 6 mixed pair_coeff terms from geometric mixing rule
Last active /omp style is pair_style gran/hooke/history/omp
Neighbor list info ...
  update every 1 steps, delay 10 steps, check yes
  max neighbors/atom: 2000, page size: 100000
  master list distance cutoff = 2.49e-06
  ghost atom cutoff = 2.49e-06
  binsize = 1.245e-06, bins = 49 49 49
  1 neighbor lists, perpetual/occasional/extra = 1 0 0
  (1) pair gran/hooke/history/omp, perpetual
      attributes: half, newton off, size, history, omp
      pair build: half/size/bin/newtoff/omp
      stencil: full/bin/3d
      bin: standard
Per MPI rank memory allocation (min/avg/max) = 11.02 | 11.02 | 11.02 Mbytes
   Step          CPU          Atoms      v_ncross1      v_ncross2      v_ncheater      v_ndead         v_neps         v_mass    
         0   0                    150   50             50             50             0              0              1.3295396e-13
         1   0.39379156           493   90             85             83             0              235            1.6445978e-13
         2   0.76388918           896   117            123            123            0              533            1.8180263e-13
         3   1.0841491           1231   127            143            139            0              822            1.9609199e-13
         4   1.3635931           1559   138            153            146            0              1122           2.0952985e-13
         5   1.561941            1897   143            163            153            0              1438           2.2239155e-13
         6   1.6897932           2248   152            172            164            0              1760           2.3487858e-13
         7   1.8113388           2588   158            180            170            0              2080           2.4705265e-13
         8   1.9632838           2958   165            188            175            0              2430           2.5914324e-13
         9   2.1222177           3327   170            199            184            0              2774           2.7092577e-13
        10   2.2623042           3709   174            207            193            0              3135           2.824589e-13 
        11   2.3678214           4080   178            213            197            0              3492           2.9362138e-13
        12   2.4867079           4464   183            217            205            0              3859           3.0461939e-13
        13   2.5938431           4861   190            222            217            0              4232           3.1543359e-13
        14   2.6920661           5256   198            228            225            0              4605           3.2605709e-13
        15   2.8466801           5639   201            234            229            0              4975           3.3646807e-13
        16   2.9565255           6042   210            238            232            0              5362           3.4660845e-13
        17   3.0576888           6453   214            247            239            0              5753           3.5642443e-13
        18   3.15329             6862   218            253            246            0              6145           3.6605279e-13
        19   3.2433497           7280   223            261            253            0              6543           3.7562957e-13
        20   3.3792839           7703   231            270            262            0              6940           3.8480711e-13
        21   3.5130818           8118   234            274            270            0              7340           3.938541e-13 
        22   3.6003039           8536   238            278            277            0              7743           4.0254192e-13
        23   3.7240957           8942   240            283            283            0              8136           4.1101384e-13
        24   3.8202629           9331   244            285            285            0              8517           4.1923483e-13
        25   3.911616            9746   245            287            291            0              8923           4.2749473e-13
        26   3.981195           10132   251            290            297            0              9294           4.3533175e-13
        27   4.0827643          10563   255            294            301            0              9713           4.4330493e-13
        28   4.1749883          10988   260            302            308            0              10118          4.5105589e-13
        29   4.293121           11387   264            304            319            0              10500          4.5853254e-13
        30   4.4228511          11799   272            304            321            0              10902          4.6602413e-13
        31   4.5592996          12195   273            305            326            0              11291          4.7332657e-13
        32   4.6912866          12598   273            310            332            0              11683          4.8051422e-13
        33   4.8510915          13016   274            313            341            0              12088          4.874749e-13 
        34   5.0402442          13417   280            319            344            0              12474          4.9428951e-13
        35   5.2278143          13834   282            322            347            0              12883          5.0109062e-13
        36   5.5514622          14227   286            324            351            0              13266          5.0752253e-13
        37   5.8741202          14655   292            332            357            0              13674          5.1367964e-13
        38   6.2312638          15060   295            335            361            0              14069          5.1959066e-13
        39   6.9733377          15487   296            338            362            0              14491          5.2559867e-13
        40   7.8968163          15916   300            339            368            0              14909          5.3144112e-13
        41   8.7363108          16313   303            341            372            0              15297          5.3685878e-13
        42   9.607482           16723   306            343            373            0              15701          5.4234645e-13
        43   10.498846          17132   307            345            376            0              16104          5.47694e-13  
        44   11.408987          17572   312            348            379            0              16533          5.5308874e-13
        45   12.34412           17969   315            349            380            0              16925          5.5799679e-13
        46   13.286254          18412   318            351            384            0              17359          5.6302388e-13
        47   14.231741          18819   321            354            384            0              17760          5.6770395e-13
        48   15.209214          19254   327            356            385            0              18186          5.7241236e-13
        49   16.183991          19677   328            358            389            0              18602          5.7694289e-13
        50   56.740572          20116   331            362            394            0              19029          5.8142124e-13
        51   57.777744          20547   333            365            396            0              19453          5.8564733e-13
        52   58.821741          20996   338            369            398            0              19891          5.8988619e-13
        53   59.905829          21423   338            370            401            0              20314          5.9400182e-13
        54   61.001531          21874   338            372            405            0              20759          5.980639e-13 
        55   62.122349          22294   340            376            406            0              21172          6.0187887e-13
        56   63.283524          22752   342            379            407            0              21624          6.0588258e-13
        57   64.460459          23181   344            379            407            0              22051          6.0959662e-13
        58   65.653533          23627   346            381            407            0              22493          6.133628e-13 
        59   66.869863          24048   347            384            410            0              22907          6.169102e-13 
        60   80.088503          24523   352            387            413            0              23371          6.2071294e-13
        61   81.379501          24951   352            389            416            0              23794          6.2420016e-13
        62   82.682855          25417   353            389            417            0              24258          6.2781581e-13
        63   84.016593          25864   358            394            418            0              24694          6.3117137e-13
        64   85.360615          26312   361            394            420            0              25137          6.3460455e-13
        65   86.724169          26765   361            398            422            0              25584          6.380214e-13 
        66   88.119706          27223   362            400            426            0              26035          6.4141009e-13
        67   89.543486          27683   365            400            430            0              26488          6.4476077e-13
        68   90.996304          28128   365            403            433            0              26927          6.4802062e-13
        69   92.503432          28593   366            403            436            0              27388          6.5139002e-13
        70   94.111698          29041   370            403            439            0              27829          6.5450108e-13
        71   95.668986          29521   374            407            441            0              28299          6.576629e-13 
        72   97.26139           29967   376            408            442            0              28741          6.6068746e-13
        73   98.878854          30437   379            409            443            0              29206          6.6373728e-13
        74   100.54837          30902   383            410            446            0              29663          6.6676186e-13
        75   102.21658          31370   385            411            449            0              30125          6.6972266e-13
        76   103.91576          31823   385            411            450            0              30577          6.7267451e-13
        77   105.69308          32270   385            412            452            0              31021          6.7552843e-13
        78   107.4703           32737   386            413            454            0              31484          6.7862349e-13
        79   109.31976          33198   386            415            454            0              31943          6.8160294e-13
        80   111.2974           33654   387            416            460            0              32391          6.845514e-13 
        81   113.24174          34109   388            417            460            0              32844          6.8755403e-13
        82   115.19526          34576   389            419            462            0              33306          6.9059291e-13
        83   117.19404          35028   393            420            464            0              33751          6.9359282e-13
        84   119.1961           35498   396            421            469            0              34212          6.9667022e-13
        85   121.28536          35977   397            423            472            0              34685          6.9970061e-13
        86   123.43203          36423   399            423            475            0              35126          7.0276352e-13
        87   125.61182          36896   401            423            477            0              35595          7.061853e-13 
        88   127.77858          37352   401            424            485            0              36042          7.095925e-13 
        89   130.04506          37820   403            427            488            0              36502          7.1299701e-13
        90   132.49073          38275   403            428            490            0              36954          7.1656871e-13
        91   134.96834          38767   405            431            496            0              37435          7.2049631e-13
        92   137.46272          39203   405            431            503            0              37864          7.2452939e-13
        93   139.96574          39679   406            433            510            0              38330          7.2868982e-13
        94   142.5498           40126   406            433            515            0              38772          7.3310165e-13
        95   145.21437          40594   408            438            527            0              39221          7.3760683e-13
        96   147.8668           41055   408            438            534            0              39675          7.4251426e-13
        97   150.51454          41505   409            443            547            0              40106          7.4734765e-13
        98   153.28105          41959   409            446            555            0              40549          7.5245704e-13
        99   156.11564          42417   410            447            563            0              40997          7.578213e-13 
       100   159.12442          42870   411            451            573            0              41435          7.6352584e-13
       101   162.04857          43306   411            455            581            0              41859          7.693049e-13 
       102   165.00799          43772   412            458            594            0              42308          7.7532533e-13
       103   167.98257          44192   413            460            607            0              42712          7.8120993e-13
       104   170.977            44661   413            466            628            0              43154          7.8746588e-13
       105   174.07708          45108   416            472            640            0              43580          7.9365632e-13
       106   177.24515          45559   420            475            647            0              44017          7.9987937e-13
       107   180.47167          46000   420            478            665            0              44437          8.0635458e-13
       108   183.76749          46442   423            482            673            1              44863          8.1281214e-13
       109   187.05491          46870   426            487            683            1              45273          8.1877519e-13
       110   190.58172          47311   428            494            697            1              45691          8.2466033e-13
       111   194.01336          47759   438            497            709            1              46114          8.3045456e-13
       112   197.49846          48215   441            498            717            3              46556          8.3614645e-13
       113   201.06997          48663   444            501            732            4              46982          8.4148277e-13
       114   204.7174           49090   446            504            738            4              47398          8.4654086e-13
       115   208.37512          49557   451            511            745            4              47846          8.5171626e-13
       116   212.2185           50022   457            514            750            6              48295          8.564943e-13 
       117   216.10823          50498   463            517            754            6              48758          8.6090206e-13
       118   219.99198          50944   467            520            754            10             49193          8.6502183e-13
       119   223.89463          51414   476            522            757            11             49648          8.6881662e-13
       120   228.01595          51922   482            526            758            14             50142          8.7255746e-13
       121   232.11125          52432   484            530            761            16             50641          8.7615132e-13
       122   236.24314          52933   486            531            760            23             51133          8.7951369e-13
       123   240.47222          53438   488            534            759            25             51632          8.8267248e-13
       124   244.76333          53972   492            535            758            30             52157          8.8576078e-13
       125   249.08022          54521   495            538            755            35             52698          8.884873e-13 
       126   253.49928          55057   500            539            755            36             53227          8.9093472e-13
       127   257.98362          55592   502            539            753            39             53759          8.9346355e-13
       128   262.49916          56163   504            541            750            42             54326          8.9597438e-13
       129   267.10483          56742   505            542            746            46             54903          8.9832993e-13
       130   271.95969          57330   505            542            738            54             55491          9.0053144e-13
       131   276.72547          57914   506            544            736            57             56071          9.0266916e-13
       132   281.60465          58480   508            545            731            63             56633          9.0463729e-13
       133   286.58311          59089   511            546            729            66             57237          9.0677252e-13
       134   291.62408          59690   511            546            725            71             57837          9.0881359e-13
       135   296.76423          60281   511            547            725            73             58425          9.1078185e-13
       136   301.99945          60894   512            547            722            76             59037          9.1279666e-13
       137   307.33916          61488   512            548            719            79             59630          9.1474081e-13
       138   312.78838          62083   512            548            717            81             60225          9.1671735e-13
       139   318.35011          62662   515            548            712            86             60801          9.1862172e-13
       140   324.14919          63261   515            549            708            90             61399          9.2064858e-13
       141   329.90861          63859   518            549            708            91             61993          9.2260254e-13
       142   335.77478          64453   518            552            705            94             62584          9.2459256e-13
       143   341.7628           65042   518            553            704            95             63172          9.2662497e-13
       144   347.872            65623   519            553            702            97             63752          9.2851464e-13
       145   354.11167          66222   520            554            702            99             64347          9.3052376e-13
       146   360.41831          66815   521            556            698            103            64937          9.3243135e-13
       147   366.84083          67413   522            556            696            105            65534          9.3440193e-13
       148   373.37135          68008   522            558            695            107            66126          9.3640215e-13
       149   380.00102          68610   523            558            695            108            66726          9.3839106e-13
       150   386.93014          69196   524            558            694            110            67310          9.4033593e-13
       151   393.7783           69798   524            558            693            112            67911          9.4236016e-13
       152   400.73644          70385   524            558            692            115            68496          9.4435628e-13
       153   407.80171          70968   524            558            687            122            69077          9.4626311e-13
       154   414.95476          71564   524            560            685            125            69670          9.4830085e-13
       155   422.2053           72136   524            561            682            128            70241          9.5022574e-13
       156   429.55902          72737   526            563            677            133            70838          9.5234313e-13
       157   437.00795          73348   527            563            676            134            71448          9.5437942e-13
       158   444.54739          73906   527            564            674            137            72004          9.5637681e-13
       159   452.18528          74513   527            564            672            139            72611          9.5846575e-13
       160   460.09371          75116   530            565            671            140            73210          9.6057131e-13
       161   467.91978          75698   530            567            671            140            73790          9.6259252e-13
       162   475.8457           76311   532            568            668            143            74400          9.6481144e-13
       163   483.88232          76906   534            568            666            145            74993          9.6690218e-13
       164   492.01299          77506   534            572            663            148            75589          9.6906763e-13
       165   500.26848          78110   534            572            664            148            76192          9.7122002e-13
       166   508.6207           78706   534            573            661            152            76786          9.7337346e-13
       167   517.04187          79302   535            573            659            154            77381          9.7553496e-13
       168   525.57176          79914   536            574            655            158            77991          9.7772411e-13
       169   534.21411          80505   537            574            651            162            78581          9.7987019e-13
       170   543.14577          81120   537            576            650            163            79194          9.8207857e-13
       171   551.98446          81716   540            577            647            166            79786          9.842097e-13 
       172   560.92472          82319   541            578            645            168            80387          9.864514e-13 
       173   569.96732          82935   542            578            643            170            81002          9.8865835e-13
       174   579.14155          83519   542            578            642            171            81586          9.9082802e-13
       175   588.45797          84117   542            579            639            174            82183          9.9298625e-13
       176   597.84908          84739   544            579            638            175            82803          9.9532383e-13
       177   607.36304          85305   544            579            634            180            83368          9.9737423e-13
       178   616.98799          85940   545            579            625            189            84002          9.9978833e-13
       179   626.72216          86512   546            579            623            191            84573          1.0019094e-12
       180   636.79742          87147   546            579            622            192            85208          1.0042718e-12
       181   646.76903          87725   546            581            618            196            85784          1.0064625e-12
       182   656.84967          88331   547            581            616            199            86388          1.0087023e-12
       183   667.02076          88948   548            581            613            202            87004          1.0110296e-12
       184   677.30637          89540   548            583            610            205            87594          1.0132217e-12
       185   687.6802           90163   549            583            609            207            88215          1.0156219e-12
       186   698.16035          90772   549            583            607            210            88823          1.0179251e-12
       187   708.75114          91367   549            583            606            212            89417          1.0201437e-12
       188   719.4302           91980   551            583            603            215            90028          1.0224579e-12
       189   730.17908          92575   552            583            599            219            90622          1.0247101e-12
       190   741.26774          93197   552            583            596            222            91244          1.0270323e-12
       191   752.24273          93775   553            583            595            223            91821          1.0292291e-12
       192   763.31141          94405   553            584            594            226            92448          1.0315728e-12
       193   774.51269          94982   554            584            594            226            93024          1.0337512e-12
       194   785.83612          95616   555            584            592            228            93657          1.0361481e-12
       195   797.27777          96209   556            585            590            230            94248          1.0383709e-12
       196   808.83678          96834   556            586            588            233            94871          1.0407565e-12
       197   820.47691          97428   556            586            584            237            95465          1.0429913e-12
       198   832.24038          98065   556            588            581            240            96100          1.0453666e-12
       199   844.1709           98667   556            589            578            244            96700          1.047623e-12 
       200   856.43853          99288   556            589            576            246            97321          1.0500458e-12
       201   868.60031          99907   556            589            575            247            97940          1.0524297e-12
       202   880.89528         100494   556            589            570            252            98527          1.0547327e-12
       203   893.28126         101118   556            590            565            257            99150          1.0571727e-12
       204   905.78621         101718   557            590            562            261            99748          1.0595133e-12
       205   918.4786          102340   557            590            557            266            100370         1.0619654e-12
       206   931.27797         102952   560            591            556            267            100978         1.0643483e-12
       207   944.14424         103560   560            591            550            273            101586         1.0667567e-12
       208   957.15878         104178   560            592            546            277            102203         1.0691523e-12
       209   970.26934         104793   560            592            544            279            102818         1.0715462e-12
       210   983.70794         105418   561            592            541            282            103442         1.0740282e-12
       211   997.03368         106022   561            592            536            288            104045         1.0764399e-12
       212   1010.5277         106643   562            592            534            291            104664         1.0789099e-12
       213   1024.1273         107253   565            591            532            294            105271         1.0812468e-12
       214   1037.8034         107874   566            591            529            297            105891         1.0837044e-12
       215   1051.6151         108480   566            591            530            297            106496         1.0861694e-12
       216   1065.5529         109099   567            591            528            299            107114         1.0885671e-12
       217   1079.5786         109704   567            591            525            302            107719         1.0909631e-12
       218   1093.7376         110327   567            591            522            305            108342         1.0933968e-12
       219   1108.0426         110938   567            591            517            310            108953         1.0959673e-12
       220   1122.7234         111565   568            591            516            313            109577         1.0986826e-12
       221   1137.2768         112158   569            592            514            315            110168         1.1013443e-12
       222   1151.9892         112802   569            592            512            318            110811         1.1043783e-12
       223   1166.9469         113417   569            594            512            320            111422         1.1072289e-12
       224   1182.0684         114028   569            594            510            324            112031         1.1101813e-12
       225   1197.3245         114663   569            595            507            328            112664         1.1134494e-12
       226   1212.6942         115265   569            596            508            330            113262         1.1168095e-12
       227   1228.1525         115887   569            596            510            335            113877         1.1206085e-12
       228   1243.7658         116501   570            595            512            337            114487         1.1244954e-12
       229   1259.5138         117108   570            595            511            341            115091         1.1286209e-12
       230   1275.6653         117740   570            596            517            344            115713         1.1330654e-12
       231   1291.7257         118339   570            597            521            348            116303         1.1377403e-12
       232   1307.9019         118967   570            597            525            354            116921         1.1428984e-12
       233   1324.2242         119560   571            597            534            355            117503         1.148344e-12 
       234   1340.6017         120178   571            597            547            355            118108         1.1542214e-12
       235   1357.139          120766   572            598            558            357            118681         1.1602537e-12
       236   1373.8829         121369   572            598            566            359            119274         1.1668705e-12
       237   1390.6544         121952   574            597            579            365            119837         1.1735487e-12
       238   1407.6134         122541   575            598            589            369            120410         1.1804609e-12
       239   1424.657          123087   579            599            597            375            120937         1.1875029e-12
       240   1442.0623         123661   583            600            608            377            121493         1.1948009e-12
       241   1459.3667         124208   585            600            618            384            122021         1.2022279e-12
       242   1476.7594         124752   588            601            631            390            122542         1.2098522e-12
       243   1494.273          125307   592            605            645            394            123071         1.2173192e-12
       244   1511.8698         125817   598            607            652            396            123564         1.2246012e-12
       245   1529.6084         126339   599            612            653            408            124067         1.2316128e-12
       246   1547.5187         126859   602            614            656            415            124572         1.2386582e-12
       247   1565.5303         127390   604            620            665            420            125081         1.2450687e-12
       248   1583.6212         127904   609            625            665            427            125578         1.2507734e-12
       249   1601.8028         128433   614            631            667            435            126086         1.2559668e-12
       250   1620.4125         129004   617            634            671            439            126643         1.2605438e-12
       251   1638.785          129553   623            635            669            443            127183         1.2646325e-12
       252   1657.3058         130104   626            637            666            450            127725         1.2682355e-12
       253   1675.9357         130735   627            643            665            454            128346         1.2715603e-12
       254   1694.5989         131356   628            647            662            459            128960         1.2745016e-12
       255   1713.4297         132031   631            647            661            461            129631         1.2773588e-12
       256   1732.509          132701   632            648            652            472            130297         1.2800781e-12
       257   1751.6034         133369   632            646            651            477            130963         1.2826608e-12
       258   1770.8011         134066   633            645            644            485            131659         1.2852264e-12
       259   1790.2001         134772   632            647            643            491            132359         1.2876995e-12
       260   1810.2343         135483   632            646            640            495            133070         1.2902835e-12
       261   1829.9231         136192   632            645            635            501            133779         1.2927414e-12
       262   1849.7164         136888   633            645            633            503            134474         1.2951821e-12
       263   1869.6913         137614   633            645            632            504            135200         1.2978189e-12
       264   1889.7856         138344   634            643            629            509            135929         1.3003392e-12
       265   1910.0788         139059   633            643            625            514            136644         1.302929e-12 
       266   1930.4523         139810   633            644            624            515            137394         1.3055887e-12
       267   1951.0199         140487   633            644            624            516            138070         1.3080005e-12
       268   1971.7053         141237   635            644            619            521            138818         1.3107232e-12
       269   1992.5133         141954   635            645            618            524            139532         1.3132557e-12
       270   2013.8445         142677   635            646            616            527            140253         1.3158452e-12
       271   2035.0125         143406   635            647            615            528            140981         1.3184335e-12
       272   2056.297          144129   635            647            612            531            141704         1.3210037e-12
       273   2077.9824         144835   635            647            612            531            142410         1.3235709e-12
       274   2100.0575         145570   637            647            611            532            143143         1.3261458e-12
       275   2122.2689         146290   637            647            610            534            143862         1.3288009e-12
       276   2144.5646         146976   637            648            608            537            144546         1.3312232e-12
       277   2167.0282         147713   637            649            605            540            145282         1.3339139e-12
       278   2189.7177         148429   635            648            604            544            145998         1.3365083e-12
       279   2212.5598         149124   636            648            603            545            146692         1.3390805e-12
       280   2235.9186         149856   636            648            603            545            147424         1.3417741e-12
       281   2259.0958         150543   636            647            603            546            148111         1.3442628e-12
       282   2282.4287         151260   636            647            603            547            148827         1.3469385e-12
       283   2305.8972         151967   636            648            603            547            149533         1.3495163e-12
       284   2329.5244         152663   637            648            601            549            150228         1.3520783e-12
       285   2353.3224         153383   638            648            598            552            150947         1.3546974e-12
       286   2377.3257         154092   637            648            597            554            151656         1.3573306e-12
       287   2401.4483         154799   638            648            596            555            152362         1.3599446e-12
       288   2425.7421         155492   638            648            597            555            153054         1.3624998e-12
       289   2450.1778         156213   638            648            596            556            153775         1.3651501e-12
       290   2475.1592         156933   639            648            596            556            154494         1.3678019e-12
       291   2500.0163         157615   639            648            595            557            155176         1.3703739e-12
       292   2525.063          158335   639            649            594            558            155895         1.3730151e-12
       293   2550.2404         159024   639            649            594            558            156584         1.3755682e-12
       294   2575.6053         159758   640            650            593            559            157316         1.3782958e-12
       295   2601.1215         160430   640            650            593            559            157988         1.3807531e-12
       296   2626.7929         161175   640            650            593            560            158732         1.3835968e-12
       297   2652.6529         161863   641            651            592            561            159418         1.3860753e-12
       298   2678.6701         162593   641            650            592            563            160147         1.3888536e-12
       299   2704.8481         163281   641            651            591            564            160834         1.391391e-12 
       300   2731.8824         164020   640            652            589            568            161571         1.3941396e-12
Loop time of 2731.88 on 16 procs for 300 steps with 164020 atoms

96.4% CPU use with 16 MPI tasks x 1 OpenMP threads

MPI task timing breakdown:
Section |  min time  |  avg time  |  max time  |%varavg| %total
---------------------------------------------------------------
Pair    | 823.05     | 922.58     | 1014.4     | 163.8 | 33.77
Neigh   | 685.12     | 749.81     | 812.59     | 140.2 | 27.45
Comm    | 336        | 349.59     | 363.4      |  47.5 | 12.80
Output  | 57.401     | 57.401     | 57.403     |   0.0 |  2.10
Modify  | 521.84     | 642.37     | 802.51     | 311.0 | 23.51
Other   |            | 10.13      |            |       |  0.37

Nlocal:        10251.2 ave       10700 max        9840 min
Histogram: 3 1 1 0 2 4 2 0 2 1
Nghost:        7842.44 ave        8127 max        7603 min
Histogram: 2 1 2 1 5 1 0 2 1 1
Neighs:         124958 ave      133050 max      116193 min
Histogram: 2 2 1 0 2 2 2 2 0 3

Total # of neighbors = 1999320
Ave neighs/atom = 12.189489
Neighbor list builds = 26410
Dangerous builds = 26110

Total wall time: 0:45:32
