LAMMPS (23 Jun 2022 - Update 4)
  using 1 OpenMP thread(s) per MPI task
package omp 0
using multi-threaded neighbor list subroutines
#-----------------------------------------------------------------------------#
#                NUFEB Simulation: Heterotrophic Biofilm Growth               #
#-----------------------------------------------------------------------------#


#-----------------------------System Settings---------------------------------#

units si                                    # using si units (m, s, kg)
atom_style      coccus                      # using nufeb coccus atom style
atom_modify     map array sort 10 0         # map array - find atoms using indices
		                            # sort every 10

boundary        pp pp ff                    # periodic boundaries in x and y
                                            # fixed boundary in z

newton          off                         # forces between local and ghost
                                            # atoms are computed in each
					     # processor without communication

processors      * * 1                       # processor grid

comm_modify     vel yes                     # communicate velocities for ghost atoms

read_data       atom_ch.in	             # read atom.in file which defines domain size
Reading data file ...
  orthogonal box = (0 0 0) to (6e-05 6e-05 6e-05)
  4 by 4 by 1 MPI processor grid
  reading atoms ...
  150 atoms
  read_data CPU = 0.040 seconds
                                            # and initial atoms


#--------------------Microbes and Functional Groups-------------------------#

group           CROSS1   type 1               # assign type 1,2 atoms to CROSS group
50 atoms in group CROSS1
group           CROSS2   type 2
50 atoms in group CROSS2
group		CHEATER  type 3
50 atoms in group CHEATER
group           dead     type 4
0 atoms in group dead
group		EPS	 type 5
0 atoms in group EPS

neighbor        5e-7 bin                   # setting neighbour skin distance and style

neigh_modify    check yes                  # rebuild neighbour list if any atom
                                           # had moved more than half the skin distance


#--------------------------Mesh Grid and Substrates--------------------------#

# defining grid sytle, substrate names, and grid size
grid_style      nufeb/chemostat 3 sub metab1 metab2 5e-6

# set diffusion boundary conditions and initial concentrations (liquid:kg/m3)
grid_modify     set sub      pp pp nd  1.8e-4
No /omp style for force computation currently active
grid_modify     set metab1   pp pp nd  1e-4
No /omp style for force computation currently active
grid_modify     set metab2   pp pp nd  1e-4
No /omp style for force computation currently active


#--------------------------Biological Processes-------------------------------#

# heterotrophs growth
fix growth_cross1 CROSS1 nufeb/growth/cross1 sub 3.5e-5 metab2 4e-3 metab1 growth 0.009 yield 0.6 decay 2.6e-6 metab1_exp 20 epsyield 0.12 epsdens 30

fix growth_cross2 CROSS2 nufeb/growth/cross2 sub 3.5e-5 metab1 4e-3 metab2 growth 0.009 yield 0.6 decay 2.6e-6 metab2_exp 20 epsyield 0.12 epsdens 30

fix growth_cheater CHEATER nufeb/growth/cheater sub 3.5e-5 metab1 1e-3 metab2 1e-3 growth 0.009 yield 0.6 decay 2.6e-6 epsyield 0.12 epsdens 30

# heterotrophs division, division diameter: 1.36e-6
fix div1 CROSS1 nufeb/division/coccus 1.36e-6 779
fix div2 CROSS2 nufeb/division/coccus 1.36e-6 2810
fix div3 CHEATER nufeb/division/coccus 1.36e-6 6193

fix death1 CROSS1 nufeb/death/diameter dead 5.43e-7
fix death2 CROSS2 nufeb/death/diameter dead 5.43e-7
fix death3 CHEATER nufeb/death/diameter dead 5.43e-7

# EPS secretion from heterotrophs
fix eps1 CROSS1 nufeb/eps_secretion 5 EPS 1.1 30 10928
fix eps2 CROSS2 nufeb/eps_secretion 5 EPS 1.1 30 17015
fix eps3 CROSS2 nufeb/eps_secretion 5 EPS 1.1 30 24454
#---------------------------Physical Processes--------------------------------#

pair_style  gran/hooke/history 1e-4 NULL 1e-5 NULL 0.0 0    # pairwise interaction
pair_coeff  * *                                             # between atoms

# pairwise interaction between z-wall and atoms
fix wall all wall/gran hooke/history 1e-3 NULL 1e-4 NULL 0 0 zplane 0.0 1e-04

fix vis all viscous 1e-5                                    # viscous damping force

fix grav all gravity 9.81 vector 0.0 0.0 -1.0

fix nve all nve/limit 1e-7                                  # NVE integration with
                                                            # maximum distance limit


#---------------------------Post-Physical Processes---------------------------#

fix coeff_sub all nufeb/diffusion_coeff sub ratio 0.8       # defining diffusion coeff in the biofilm
fix coeff_metab1 all nufeb/diffusion_coeff metab1 ratio 0.8    # region is 80% of the value in liquid
fix coeff_metab2 all nufeb/diffusion_coeff metab2 ratio 0.8

#---------------------------Chemical Processes---------------------------------#

fix diff_sub all nufeb/diffusion_reaction sub 1e-9        # diffusion reaction for updating
fix diff_metab1 all nufeb/diffusion_reaction metab1 4e-9     # distribusion of substrate concentration
fix diff_metab2 all nufeb/diffusion_reaction metab2 4e-9

#--------------------------Computations and Outputs----------------------------#

variable mass equal "mass(all)"                             # total mass
variable ncross1 equal "count(CROSS1)"                      # total # of CROSS1
variable ncross2 equal "count(CROSS2)"                      # total # of CROSS2
variable ncheater equal "count(CHEATER)"
variable ndead equal "count(dead)"
variable neps equal "count(EPS)"

shell mkdir vtk_CHEPS_ch                                            # dump vtk files to /vtk folder
dump du1 all vtk 10 vtk_CHEPS_ch/dump*.vtu id type diameter         # require build NUFEB with vtk option
dump du2 all grid/vtk 10 vtk_CHEPS_ch/dump_%_*.vti con rea den gro

#dump du3 all movie 10 movie.avi type diameter view 80 60    # dump video
#dump_modify du3 acolor 1 blue acolor 2 lightgrey framerate 10


                                                            # dump hdf5 files to /hdf5 folder
#shell mkdir hdf5                                           # require build NUFEB with hdf5 option
#dump du3 all nufeb/hdf5 10 dump.h5 id type x y z vx vy vz fx fy fz radius conc reac

thermo_style custom step cpu atoms v_ncross1 v_ncross2 v_ncheater v_ndead v_neps v_mass     # screen and log outputs
thermo 1
thermo_modify   lost ignore

#-----------------------------------Run----------------------------------------#

# issue run command, define timesteps for physical (pairdt) and chemical (diffdt) processes
run_style nufeb diffdt 1e-4 difftol 1e-6 pairdt 1e-2 pairtol 1 pairmax 1000 diffmax 5000

timestep 12000                                               # define biological timesteps (1000s)

run 300                                                    # growing biofilm for 900x1000s
Generated 0 of 6 mixed pair_coeff terms from geometric mixing rule
Last active /omp style is pair_style gran/hooke/history/omp
Neighbor list info ...
  update every 1 steps, delay 10 steps, check yes
  max neighbors/atom: 2000, page size: 100000
  master list distance cutoff = 2.49e-06
  ghost atom cutoff = 2.49e-06
  binsize = 1.245e-06, bins = 49 49 49
  1 neighbor lists, perpetual/occasional/extra = 1 0 0
  (1) pair gran/hooke/history/omp, perpetual
      attributes: half, newton off, size, history, omp
      pair build: half/size/bin/newtoff/omp
      stencil: full/bin/3d
      bin: standard
Per MPI rank memory allocation (min/avg/max) = 11.02 | 11.02 | 11.02 Mbytes
   Step          CPU          Atoms      v_ncross1      v_ncross2      v_ncheater      v_ndead         v_neps         v_mass    
         0   0                    150   50             50             50             0              0              1.3295396e-13
         1   0.38902742           497   90             85             83             0              239            1.6437109e-13
         2   0.76228462           909   120            125            123            0              541            1.8172189e-13
         3   1.05833             1244   128            144            134            0              838            1.9594419e-13
         4   1.3423845           1590   139            151            144            0              1156           2.0913494e-13
         5   1.5168444           1922   143            159            154            0              1466           2.217906e-13 
         6   1.6686692           2255   147            170            158            0              1780           2.3414112e-13
         7   1.8092576           2607   157            176            168            0              2106           2.4628761e-13
         8   1.9499387           2968   163            186            177            0              2442           2.5824114e-13
         9   2.0818836           3336   167            200            183            0              2786           2.6994029e-13
        10   2.2349452           3709   172            210            187            0              3140           2.8121517e-13
        11   2.3525385           4098   181            215            198            0              3504           2.9224768e-13
        12   2.4989428           4485   188            220            203            0              3874           3.0300719e-13
        13   2.5977646           4869   193            223            212            0              4241           3.1356879e-13
        14   2.6887411           5276   200            228            218            0              4630           3.2403034e-13
        15   2.8102572           5679   203            236            227            0              5013           3.3422476e-13
        16   2.8997821           6083   211            245            228            0              5399           3.4407282e-13
        17   3.0023617           6493   216            248            235            0              5794           3.5385815e-13
        18   3.0856366           6934   223            255            239            0              6217           3.6349072e-13
        19   3.1812115           7338   229            257            250            0              6602           3.7276043e-13
        20   3.3087065           7761   238            265            255            0              7003           3.8198869e-13
        21   3.4300813           8176   241            267            261            0              7407           3.9103263e-13
        22   3.5088048           8592   245            269            267            0              7811           3.997602e-13 
        23   3.6018627           9003   249            274            274            0              8206           4.0823307e-13
        24   3.7044799           9436   252            282            276            0              8626           4.1667942e-13
        25   3.7866282           9831   257            287            284            0              9003           4.2483164e-13
        26   3.8579675          10269   264            289            288            0              9428           4.3304789e-13
        27   3.9730031          10694   265            292            296            0              9841           4.4104364e-13
        28   4.1228517          11102   268            295            302            0              10237          4.4880232e-13
        29   4.2155211          11530   273            297            313            0              10647          4.5631689e-13
        30   4.4089179          11942   280            298            316            0              11048          4.6355374e-13
        31   4.5254471          12374   285            305            322            0              11462          4.7077341e-13
        32   4.6391798          12787   287            307            325            0              11868          4.778134e-13 
        33   4.8234398          13189   290            312            328            0              12259          4.846399e-13 
        34   4.9602546          13636   296            316            333            0              12691          4.9142622e-13
        35   5.1274935          14068   300            320            340            0              13108          4.9810985e-13
        36   5.4212426          14470   302            323            343            0              13502          5.0442382e-13
        37   5.8657209          14929   309            325            350            0              13945          5.1074587e-13
        38   6.4731153          15352   312            331            358            0              14351          5.166485e-13 
        39   6.8772293          15783   315            332            359            0              14777          5.2257619e-13
        40   7.7544853          16200   318            333            362            0              15187          5.2832542e-13
        41   8.5859276          16619   319            335            363            0              15602          5.3399972e-13
        42   9.4386745          17054   323            338            365            0              16028          5.3960919e-13
        43   10.316224          17494   328            342            370            0              16454          5.4503683e-13
        44   11.234175          17939   329            343            371            0              16896          5.5033045e-13
        45   12.131984          18362   329            348            373            0              17312          5.5522017e-13
        46   13.089794          18818   335            352            374            0              17757          5.6026982e-13
        47   14.058495          19267   339            354            377            0              18197          5.6519607e-13
        48   15.014669          19702   342            356            380            0              18624          5.6998749e-13
        49   16.00886           20130   344            358            382            0              19046          5.7466708e-13
        50   17.093785          20580   348            359            383            0              19490          5.793079e-13 
        51   18.138181          21010   351            360            385            0              19914          5.8370513e-13
        52   19.208914          21475   353            365            387            0              20370          5.8823056e-13
        53   20.308877          21915   356            366            390            0              20803          5.9245341e-13
        54   21.449731          22367   358            366            392            0              21251          5.9679259e-13
        55   22.59276           22788   360            368            393            0              21667          6.0093223e-13
        56   23.79566           23254   362            370            396            0              22126          6.0514842e-13
        57   24.989688          23695   364            372            401            0              22558          6.0907676e-13
        58   26.205906          24150   366            373            405            0              23006          6.1300171e-13
        59   27.431104          24569   367            373            407            0              23422          6.1666311e-13
        60   59.428493          25035   369            375            408            0              23883          6.2064725e-13
        61   60.712363          25475   370            376            411            0              24318          6.2436944e-13
        62   62.011671          25903   372            377            418            0              24736          6.2803136e-13
        63   63.334533          26375   376            379            418            0              25202          6.3182589e-13
        64   64.697307          26825   378            382            421            0              25644          6.3543333e-13
        65   66.07674           27265   381            383            421            0              26080          6.3892466e-13
        66   67.486445          27716   381            385            422            0              26528          6.4247327e-13
        67   68.929195          28190   383            390            424            0              26993          6.4596873e-13
        68   70.404759          28649   383            393            426            0              27447          6.4938221e-13
        69   71.901543          29096   385            395            428            0              27888          6.5272893e-13
        70   73.517541          29567   387            397            429            0              28354          6.5615809e-13
        71   75.183097          30012   390            400            431            0              28791          6.5938643e-13
        72   76.784811          30490   391            400            433            0              29266          6.6277161e-13
        73   78.424464          30937   391            401            435            0              29710          6.6601418e-13
        74   80.095645          31407   392            403            435            0              30177          6.6924476e-13
        75   81.792768          31831   393            403            438            0              30597          6.7231922e-13
        76   83.544624          32313   395            403            439            0              31076          6.755926e-13 
        77   85.313423          32772   399            404            445            0              31524          6.7865797e-13
        78   87.146417          33243   401            406            448            0              31988          6.8170468e-13
        79   88.987807          33700   402            407            449            0              32442          6.8473101e-13
        80   90.967666          34158   402            409            449            0              32898          6.8771633e-13
        81   92.863541          34626   406            409            449            0              33362          6.9075678e-13
        82   94.852741          35108   409            409            453            0              33837          6.9373267e-13
        83   96.850658          35545   409            410            456            0              34270          6.965361e-13 
        84   98.887656          36056   412            414            457            0              34773          6.9959617e-13
        85   100.92885          36493   412            415            458            0              35208          7.0237633e-13
        86   103.03642          36966   413            415            459            0              35679          7.0530967e-13
        87   105.27963          37423   415            415            461            0              36132          7.0817499e-13
        88   107.51917          37900   416            417            462            0              36605          7.1105166e-13
        89   109.80306          38366   416            420            465            0              37065          7.1396702e-13
        90   112.23893          38838   418            422            470            0              37528          7.1692201e-13
        91   114.68339          39306   419            424            473            0              37990          7.2003508e-13
        92   117.1061           39776   421            426            476            0              38453          7.2332426e-13
        93   119.56554          40244   421            431            480            0              38912          7.267936e-13 
        94   122.14569          40733   421            431            488            0              39393          7.3069282e-13
        95   124.8383           41176   422            433            490            0              39831          7.3477731e-13
        96   127.40733          41656   422            435            498            0              40301          7.3957534e-13
        97   130.1167           42098   425            438            507            0              40728          7.4401244e-13
        98   132.89601          42586   426            440            515            0              41205          7.4897972e-13
        99   135.65158          43019   427            441            526            0              41625          7.5410532e-13
       100   138.90195          43493   429            442            544            0              42078          7.5962397e-13
       101   141.8191           43942   430            445            552            0              42515          7.6527823e-13
       102   144.74935          44401   433            448            564            0              42956          7.7138798e-13
       103   147.78246          44845   434            449            573            0              43389          7.7744509e-13
       104   150.82473          45273   435            451            589            0              43798          7.8374537e-13
       105   153.9416           45741   440            456            599            0              44246          7.9038332e-13
       106   157.04825          46174   442            459            617            0              44656          7.9724937e-13
       107   160.22107          46613   446            462            635            0              45070          8.044366e-13 
       108   163.43484          47088   447            468            650            0              45523          8.1182578e-13
       109   166.79287          47521   451            470            664            1              45935          8.1895737e-13
       110   170.22776          47968   453            475            672            3              46365          8.2606615e-13
       111   173.58584          48398   455            478            691            3              46771          8.3296284e-13
       112   176.93949          48844   462            486            704            5              47187          8.3942132e-13
       113   180.40826          49316   466            489            720            6              47635          8.4603015e-13
       114   183.93704          49755   470            489            731            9              48056          8.5218631e-13
       115   187.53947          50200   474            493            737            10             48486          8.5808411e-13
       116   191.13666          50668   479            498            747            10             48934          8.6374243e-13
       117   194.8154           51141   482            502            758            12             49387          8.6915395e-13
       118   198.57006          51603   485            506            765            14             49833          8.7434034e-13
       119   202.41051          52090   489            512            777            14             50298          8.7939652e-13
       120   206.46959          52570   494            516            779            16             50765          8.8392602e-13
       121   210.43639          53067   496            517            782            18             51254          8.8806623e-13
       122   214.46163          53556   498            518            782            20             51738          8.9163435e-13
       123   218.47419          54083   504            519            782            22             52256          8.9498534e-13
       124   222.54955          54605   506            519            784            23             52773          8.9817133e-13
       125   226.66016          55154   507            520            784            29             53314          9.0120561e-13
       126   230.89496          55709   508            521            781            35             53864          9.0414446e-13
       127   235.12697          56253   509            522            779            38             54405          9.0664482e-13
       128   239.46801          56823   511            524            780            39             54969          9.0904977e-13
       129   243.83415          57416   511            526            778            42             55559          9.1131003e-13
       130   248.40057          57967   511            527            776            44             56109          9.1332394e-13
       131   252.9104           58575   512            529            774            47             56713          9.1544204e-13
       132   257.50389          59175   513            530            768            54             57310          9.1742586e-13
       133   262.19087          59753   515            531            765            58             57884          9.1934993e-13
       134   266.97956          60353   515            532            762            62             58482          9.2138851e-13
       135   271.84927          60951   515            532            761            64             59079          9.2338617e-13
       136   276.77027          61523   515            532            760            65             59651          9.2528833e-13
       137   281.82037          62126   515            532            756            69             60254          9.2732127e-13
       138   286.93711          62716   515            532            753            73             60843          9.2923247e-13
       139   292.15077          63313   515            532            752            74             61440          9.312133e-13 
       140   297.56169          63877   515            533            748            78             62003          9.3305812e-13
       141   302.89366          64485   515            533            745            81             62611          9.3512731e-13
       142   308.35732          65053   516            533            748            81             63175          9.3709711e-13
       143   313.7696           65661   516            534            743            87             63781          9.39147e-13  
       144   319.24979          66222   516            534            741            89             64342          9.4104074e-13
       145   324.79326          66820   516            535            741            90             64938          9.4311423e-13
       146   330.45759          67389   516            535            741            91             65506          9.45135e-13  
       147   336.19032          67989   517            537            738            95             66102          9.4720793e-13
       148   341.9832           68560   518            537            738            96             66671          9.4918114e-13
       149   347.88943          69159   518            537            735            99             67270          9.5124211e-13
       150   354.11872          69741   519            538            732            102            67850          9.5326799e-13
       151   360.21083          70336   522            539            728            106            68441          9.5523509e-13
       152   366.41436          70914   522            540            725            109            69018          9.5720591e-13
       153   372.65336          71521   526            540            722            113            69620          9.5918791e-13
       154   378.98629          72114   528            541            720            115            70210          9.6121033e-13
       155   385.40062          72679   531            541            716            120            70771          9.6311227e-13
       156   391.90472          73296   531            543            714            123            71385          9.6531618e-13
       157   398.50774          73863   535            544            711            126            71947          9.6718105e-13
       158   405.18436          74483   535            544            709            128            72567          9.6937981e-13
       159   411.91892          75049   535            545            711            128            73130          9.7128458e-13
       160   418.95724          75655   535            546            709            130            73735          9.7338225e-13
       161   425.87864          76227   535            547            706            133            74306          9.7534341e-13
       162   432.89835          76829   535            547            705            134            74908          9.77516e-13  
       163   439.98712          77400   536            548            700            139            75477          9.7945931e-13
       164   447.16821          78016   537            550            700            139            76090          9.8170221e-13
       165   454.41826          78607   538            551            697            142            76679          9.8372286e-13
       166   461.74066          79197   540            551            695            144            77267          9.8586706e-13
       167   469.18059          79785   540            551            693            146            77855          9.8798696e-13
       168   476.6884           80387   540            552            690            149            78456          9.901328e-13 
       169   484.28898          80976   540            552            688            152            79044          9.9217322e-13
       170   492.17851          81578   540            552            687            156            79643          9.943242e-13 
       171   499.97441          82156   540            555            686            158            80217          9.9635299e-13
       172   507.85701          82766   540            556            680            164            80826          9.9852504e-13
       173   515.78276          83341   540            556            680            166            81399          1.0005309e-12
       174   523.82081          83928   540            556            677            170            81985          1.0026689e-12
       175   531.97991          84529   540            556            671            176            82586          1.0048442e-12
       176   540.18774          85106   541            557            672            177            83159          1.006876e-12 
       177   548.51111          85720   541            558            671            179            83771          1.0090928e-12
       178   556.90554          86293   541            558            671            179            84344          1.0111306e-12
       179   565.3841           86892   541            558            669            181            84943          1.0132679e-12
       180   574.15068          87481   541            558            664            186            85532          1.0154419e-12
       181   582.83403          88076   543            559            662            188            86124          1.01756e-12  
       182   591.52458          88671   544            559            658            193            86717          1.0197144e-12
       183   600.31387          89270   547            559            658            193            87313          1.0218535e-12
       184   609.17612          89852   548            559            658            194            87893          1.0240447e-12
       185   618.13754          90461   549            561            657            195            88499          1.0262552e-12
       186   627.19413          91053   549            561            657            196            89090          1.0284758e-12
       187   636.34718          91654   549            561            657            196            89691          1.0307139e-12
       188   645.57559          92255   549            563            656            197            90290          1.0329665e-12
       189   654.90927          92842   549            564            654            199            90876          1.0351127e-12
       190   664.85766          93448   549            565            652            201            91481          1.0374387e-12
       191   674.38884          94037   549            565            652            201            92070          1.0396297e-12
       192   683.93843          94653   550            567            651            202            92683          1.0419913e-12
       193   693.5764           95242   550            568            647            206            93271          1.0442487e-12
       194   703.29324          95863   552            569            647            206            93889          1.0466283e-12
       195   713.05212          96458   553            569            645            208            94483          1.0489063e-12
       196   722.92301          97064   553            570            644            209            95088          1.0512544e-12
       197   732.85557          97660   553            570            644            210            95683          1.0535087e-12
       198   742.88411          98265   553            570            642            212            96288          1.0558635e-12
       199   753.00632          98862   553            570            641            213            96885          1.0581099e-12
       200   763.4387           99469   553            572            642            214            97488          1.0604279e-12
       201   773.72246         100073   553            573            642            215            98090          1.0626987e-12
       202   784.08866         100694   553            574            640            218            98709          1.0650334e-12
       203   794.50358         101270   553            575            640            218            99284          1.0672006e-12
       204   805.00219         101909   554            575            636            222            99922          1.0696605e-12
       205   815.60908         102478   554            575            635            223            100491         1.0718407e-12
       206   826.34182         103113   554            576            633            227            101123         1.0743165e-12
       207   837.13177         103691   554            577            634            227            101699         1.0765876e-12
       208   848.04424         104327   555            578            627            234            102333         1.0791714e-12
       209   859.00735         104894   555            578            624            237            102900         1.0813827e-12
       210   870.31197         105531   555            579            624            238            103535         1.0839253e-12
       211   881.45822         106109   556            580            625            238            104110         1.0863379e-12
       212   892.70766         106738   557            580            624            241            104736         1.0888244e-12
       213   904.03908         107332   557            580            623            243            105329         1.0912819e-12
       214   915.51091         107945   557            581            619            247            105941         1.093753e-12 
       215   927.07233         108539   558            581            621            247            106532         1.0961858e-12
       216   938.70398         109172   558            581            619            249            107165         1.0986915e-12
       217   950.47371         109757   559            581            617            251            107749         1.1011465e-12
       218   962.30082         110391   560            581            620            251            108379         1.1039198e-12
       219   974.24614         110969   561            582            621            252            108953         1.1064817e-12
       220   986.54819         111607   561            583            620            253            109590         1.109379e-12 
       221   998.70656         112188   561            584            616            259            110168         1.1120605e-12
       222   1011.0022         112824   562            584            618            263            110797         1.1153535e-12
       223   1023.3648         113409   562            585            613            269            111380         1.1184205e-12
       224   1035.8698         114047   562            585            616            270            112014         1.1219046e-12
       225   1048.4484         114646   564            585            622            271            112604         1.1254472e-12
       226   1061.128          115258   564            586            624            272            113212         1.1292454e-12
       227   1073.8778         115854   566            586            627            276            113799         1.1332715e-12
       228   1086.7879         116468   566            586            631            279            114406         1.1374629e-12
       229   1099.7694         117072   566            586            637            283            115000         1.1418459e-12
       230   1113.088          117677   566            586            633            291            115601         1.1465762e-12
       231   1126.2186         118275   567            586            635            297            116190         1.1515299e-12
       232   1139.515          118912   567            587            640            303            116815         1.1567622e-12
       233   1152.8471         119498   567            587            654            307            117383         1.1621121e-12
       234   1166.3276         120114   567            586            662            312            117987         1.1680552e-12
       235   1179.87           120708   568            586            667            317            118570         1.1742373e-12
       236   1193.521          121311   568            586            679            318            119160         1.1807134e-12
       237   1207.2156         121894   569            587            685            323            119730         1.1874173e-12
       238   1221.0497         122494   568            587            695            329            120315         1.1943985e-12
       239   1234.9468         123063   569            587            703            335            120869         1.2016306e-12
       240   1249.2768         123679   569            588            721            339            121462         1.2093506e-12
       241   1263.3392         124239   569            588            735            348            121999         1.2173199e-12
       242   1277.5701         124848   570            590            752            351            122585         1.2256938e-12
       243   1291.9747         125385   572            590            756            357            123110         1.2341327e-12
       244   1306.5167         125940   575            592            771            361            123641         1.2427461e-12
       245   1321.1443         126473   578            596            785            366            124148         1.2510069e-12
       246   1335.8607         126989   584            595            803            370            124637         1.2588744e-12
       247   1350.7123         127467   589            596            810            379            125093         1.2666774e-12
       248   1365.6355         127958   594            600            815            381            125568         1.2735181e-12
       249   1380.6127         128463   605            606            818            385            126049         1.2795205e-12
       250   1395.9636         128953   608            608            816            394            126527         1.2851023e-12
       251   1411.0916         129498   611            613            818            402            127054         1.2897504e-12
       252   1426.305          130042   617            615            819            408            127583         1.2937382e-12
       253   1441.5229         130638   618            621            818            413            128168         1.2973051e-12
       254   1456.764          131210   620            623            814            418            128735         1.3004003e-12
       255   1472.1708         131816   623            622            807            431            129333         1.3032366e-12
       256   1487.6358         132444   626            625            801            439            129953         1.3057778e-12
       257   1503.0339         133077   626            627            800            441            130583         1.3081577e-12
       258   1518.6188         133735   628            629            797            446            131235         1.3103959e-12
       259   1534.2727         134402   632            628            792            453            131897         1.312447e-12 
       260   1550.4031         135099   633            629            788            458            132591         1.3146138e-12
       261   1566.3834         135796   634            628            786            463            133285         1.3167057e-12
       262   1582.512          136490   635            629            785            466            133975         1.3188898e-12
       263   1598.6196         137210   635            630            784            469            134692         1.3212926e-12
       264   1614.9066         137901   635            631            783            472            135380         1.3236427e-12
       265   1631.2822         138645   635            630            781            477            136122         1.3262538e-12
       266   1647.7968         139354   635            631            780            480            136828         1.3288295e-12
       267   1664.4884         140084   635            630            780            484            137555         1.3315297e-12
       268   1681.1769         140764   635            630            779            489            138231         1.3341051e-12
       269   1698.0603         141510   635            630            778            493            138974         1.3369899e-12
       270   1715.2931         142193   635            630            778            496            139654         1.339751e-12 
       271   1732.3874         142915   636            630            778            499            140372         1.3427449e-12
       272   1749.4984         143617   636            630            778            501            141072         1.3457485e-12
       273   1766.8215         144336   637            630            782            502            141785         1.3489372e-12
       274   1784.3925         145031   637            630            785            506            142473         1.3521461e-12
       275   1802.0485         145732   637            629            787            508            143171         1.355393e-12 
       276   1819.8745         146444   637            630            788            511            143878         1.3587263e-12
       277   1837.7615         147132   637            630            787            515            144563         1.3621283e-12
       278   1855.7861         147848   636            630            791            519            145272         1.3655675e-12
       279   1873.9872         148537   637            632            795            522            145951         1.3689622e-12
       280   1892.6493         149257   638            632            797            523            146667         1.3725745e-12
       281   1911.3063         149930   638            631            802            525            147334         1.3760033e-12
       282   1930.0359         150641   637            631            806            527            148040         1.3797567e-12
       283   1948.8281         151318   638            633            810            529            148708         1.383273e-12 
       284   1967.7388         152040   638            634            814            532            149422         1.3870719e-12
       285   1986.7676         152701   639            634            813            538            150077         1.3906855e-12
       286   2005.8772         153441   640            634            821            540            150806         1.3947917e-12
       287   2025.1337         154109   640            635            821            545            151468         1.3986701e-12
       288   2044.4862         154808   640            635            824            549            152160         1.4026548e-12
       289   2063.9393         155521   640            635            825            551            152870         1.4067681e-12
       290   2083.9028         156171   640            635            828            555            153513         1.4106677e-12
       291   2103.7158         156906   640            635            833            559            154239         1.4150385e-12
       292   2123.5925         157572   640            636            842            562            154892         1.419129e-12 
       293   2143.6117         158284   640            637            841            564            155602         1.4234848e-12
       294   2163.7057         158954   641            637            842            568            156266         1.4278751e-12
       295   2184.0416         159673   642            637            851            570            156973         1.43241e-12  
       296   2204.3972         160333   642            637            861            572            157621         1.4371374e-12
       297   2224.8999         161051   642            637            867            574            158331         1.4420444e-12
       298   2245.4925         161700   642            638            875            575            158970         1.4466706e-12
       299   2266.2426         162415   642            638            878            582            159675         1.4517632e-12
       300   2287.4643         163078   642            637            889            584            160326         1.4567419e-12
Loop time of 2287.46 on 16 procs for 300 steps with 163078 atoms

96.7% CPU use with 16 MPI tasks x 1 OpenMP threads

MPI task timing breakdown:
Section |  min time  |  avg time  |  max time  |%varavg| %total
---------------------------------------------------------------
Pair    | 660.93     | 736.09     | 787.23     | 118.5 | 32.18
Neigh   | 682.01     | 754.29     | 805.96     | 131.1 | 32.97
Comm    | 221.68     | 227.53     | 232.39     |  20.4 |  9.95
Output  | 36.893     | 36.893     | 36.894     |   0.0 |  1.61
Modify  | 423.85     | 525.12     | 667.52     | 285.8 | 22.96
Other   |            | 7.554      |            |       |  0.33

Nlocal:        10192.4 ave       10688 max        9740 min
Histogram: 1 1 2 3 3 0 3 1 1 1
Nghost:        7869.44 ave        8214 max        7647 min
Histogram: 5 1 1 1 2 2 1 0 2 1
Neighs:         124670 ave      132496 max      114379 min
Histogram: 1 1 0 2 2 4 0 2 2 2

Total # of neighbors = 1994717
Ave neighs/atom = 12.231674
Neighbor list builds = 26404
Dangerous builds = 26104

Total wall time: 0:38:07
