LAMMPS (23 Jun 2022 - Update 4)
  using 1 OpenMP thread(s) per MPI task
package omp 0
using multi-threaded neighbor list subroutines
#-----------------------------------------------------------------------------#
#                NUFEB Simulation: Heterotrophic Biofilm Growth               #
#-----------------------------------------------------------------------------#


#-----------------------------System Settings---------------------------------#

units si                                    # using si units (m, s, kg)
atom_style      coccus                      # using nufeb coccus atom style
atom_modify     map array sort 10 0         # map array - find atoms using indices
		                            # sort every 10

boundary        pp pp ff                    # periodic boundaries in x and y
                                            # fixed boundary in z

newton          off                         # forces between local and ghost
                                            # atoms are computed in each
					     # processor without communication

processors      * * 1                       # processor grid

comm_modify     vel yes                     # communicate velocities for ghost atoms

read_data       atom_ch.in	             # read atom.in file which defines domain size
Reading data file ...
  orthogonal box = (0 0 0) to (6e-05 6e-05 6e-05)
  4 by 4 by 1 MPI processor grid
  reading atoms ...
  150 atoms
  read_data CPU = 0.022 seconds
                                            # and initial atoms


#--------------------Microbes and Functional Groups-------------------------#

group           CROSS1   type 1               # assign type 1,2 atoms to CROSS group
50 atoms in group CROSS1
group           CROSS2   type 2
50 atoms in group CROSS2
group		CHEATER  type 3
50 atoms in group CHEATER
group           dead     type 4
0 atoms in group dead
group		EPS	 type 5
0 atoms in group EPS

neighbor        5e-7 bin                   # setting neighbour skin distance and style

neigh_modify    check yes                  # rebuild neighbour list if any atom
                                           # had moved more than half the skin distance


#--------------------------Mesh Grid and Substrates--------------------------#

# defining grid sytle, substrate names, and grid size
grid_style      nufeb/chemostat 3 sub metab1 metab2 5e-6

# set diffusion boundary conditions and initial concentrations (liquid:kg/m3)
grid_modify     set sub      pp pp nd  1.8e-4
No /omp style for force computation currently active
grid_modify     set metab1   pp pp nd  1e-4
No /omp style for force computation currently active
grid_modify     set metab2   pp pp nd  1e-4
No /omp style for force computation currently active


#--------------------------Biological Processes-------------------------------#

# heterotrophs growth
fix growth_cross1 CROSS1 nufeb/growth/cross1 sub 3.5e-5 metab2 4e-3 metab1 growth 0.009 yield 0.6 decay 2.6e-6 metab1_exp 20 epsyield 0.12 epsdens 30

fix growth_cross2 CROSS2 nufeb/growth/cross2 sub 3.5e-5 metab1 4e-3 metab2 growth 0.009 yield 0.6 decay 2.6e-6 metab2_exp 20 epsyield 0.12 epsdens 30

fix growth_cheater CHEATER nufeb/growth/cheater sub 3.5e-5 metab1 1e-3 metab2 1e-3 growth 0.009 yield 0.6 decay 2.6e-6 epsyield 0.12 epsdens 30

# heterotrophs division, division diameter: 1.36e-6
fix div1 CROSS1 nufeb/division/coccus 1.36e-6 632
fix div2 CROSS2 nufeb/division/coccus 1.36e-6 2222
fix div3 CHEATER nufeb/division/coccus 1.36e-6 4870

fix death1 CROSS1 nufeb/death/diameter dead 5.43e-7
fix death2 CROSS2 nufeb/death/diameter dead 5.43e-7
fix death3 CHEATER nufeb/death/diameter dead 5.43e-7

# EPS secretion from heterotrophs
fix eps1 CROSS1 nufeb/eps_secretion 5 EPS 1.1 30 8576
fix eps2 CROSS2 nufeb/eps_secretion 5 EPS 1.1 30 13340
fix eps3 CROSS2 nufeb/eps_secretion 5 EPS 1.1 30 19162
#---------------------------Physical Processes--------------------------------#

pair_style  gran/hooke/history 1e-4 NULL 1e-5 NULL 0.0 0    # pairwise interaction
pair_coeff  * *                                             # between atoms

# pairwise interaction between z-wall and atoms
fix wall all wall/gran hooke/history 1e-3 NULL 1e-4 NULL 0 0 zplane 0.0 1e-04

fix vis all viscous 1e-5                                    # viscous damping force

fix grav all gravity 9.81 vector 0.0 0.0 -1.0

fix nve all nve/limit 1e-7                                  # NVE integration with
                                                            # maximum distance limit


#---------------------------Post-Physical Processes---------------------------#

fix coeff_sub all nufeb/diffusion_coeff sub ratio 0.8       # defining diffusion coeff in the biofilm
fix coeff_metab1 all nufeb/diffusion_coeff metab1 ratio 0.8    # region is 80% of the value in liquid
fix coeff_metab2 all nufeb/diffusion_coeff metab2 ratio 0.8

#---------------------------Chemical Processes---------------------------------#

fix diff_sub all nufeb/diffusion_reaction sub 1e-9        # diffusion reaction for updating
fix diff_metab1 all nufeb/diffusion_reaction metab1 4e-9     # distribusion of substrate concentration
fix diff_metab2 all nufeb/diffusion_reaction metab2 4e-9

#--------------------------Computations and Outputs----------------------------#

variable mass equal "mass(all)"                             # total mass
variable ncross1 equal "count(CROSS1)"                      # total # of CROSS1
variable ncross2 equal "count(CROSS2)"                      # total # of CROSS2
variable ncheater equal "count(CHEATER)"
variable ndead equal "count(dead)"
variable neps equal "count(EPS)"

shell mkdir vtk_CHEPS_ch                                            # dump vtk files to /vtk folder
dump du1 all vtk 10 vtk_CHEPS_ch/dump*.vtu id type diameter         # require build NUFEB with vtk option
dump du2 all grid/vtk 10 vtk_CHEPS_ch/dump_%_*.vti con rea den gro

#dump du3 all movie 10 movie.avi type diameter view 80 60    # dump video
#dump_modify du3 acolor 1 blue acolor 2 lightgrey framerate 10


                                                            # dump hdf5 files to /hdf5 folder
#shell mkdir hdf5                                           # require build NUFEB with hdf5 option
#dump du3 all nufeb/hdf5 10 dump.h5 id type x y z vx vy vz fx fy fz radius conc reac

thermo_style custom step cpu atoms v_ncross1 v_ncross2 v_ncheater v_ndead v_neps v_mass     # screen and log outputs
thermo 1
thermo_modify   lost ignore

#-----------------------------------Run----------------------------------------#

# issue run command, define timesteps for physical (pairdt) and chemical (diffdt) processes
run_style nufeb diffdt 1e-4 difftol 1e-6 pairdt 1e-2 pairtol 1 pairmax 1000 diffmax 5000

timestep 12000                                               # define biological timesteps (1000s)

run 300                                                    # growing biofilm for 900x1000s
Generated 0 of 6 mixed pair_coeff terms from geometric mixing rule
Last active /omp style is pair_style gran/hooke/history/omp
Neighbor list info ...
  update every 1 steps, delay 10 steps, check yes
  max neighbors/atom: 2000, page size: 100000
  master list distance cutoff = 2.49e-06
  ghost atom cutoff = 2.49e-06
  binsize = 1.245e-06, bins = 49 49 49
  1 neighbor lists, perpetual/occasional/extra = 1 0 0
  (1) pair gran/hooke/history/omp, perpetual
      attributes: half, newton off, size, history, omp
      pair build: half/size/bin/newtoff/omp
      stencil: full/bin/3d
      bin: standard
Per MPI rank memory allocation (min/avg/max) = 11.02 | 11.02 | 11.02 Mbytes
   Step          CPU          Atoms      v_ncross1      v_ncross2      v_ncheater      v_ndead         v_neps         v_mass    
         0   0                    150   50             50             50             0              0              1.3295396e-13
         1   0.38874019           492   90             85             83             0              234            1.6435328e-13
         2   0.76301831           903   119            125            123            0              536            1.8171076e-13
         3   1.0548322           1245   129            145            137            0              834            1.9607621e-13
         4   1.3335592           1588   139            157            146            0              1146           2.0933209e-13
         5   1.5181056           1933   143            163            157            0              1470           2.2200533e-13
         6   1.6465828           2277   149            172            161            0              1795           2.3419939e-13
         7   1.7580631           2625   158            178            165            0              2124           2.461651e-13 
         8   1.8727246           2987   166            187            172            0              2462           2.5783397e-13
         9   1.9963194           3360   172            197            177            0              2814           2.6932887e-13
        10   2.1368267           3747   185            203            187            0              3172           2.8063804e-13
        11   2.2539894           4139   190            213            195            0              3541           2.9167448e-13
        12   2.3561369           4527   191            220            200            0              3916           3.0261636e-13
        13   2.4524436           4918   195            225            208            0              4290           3.1332818e-13
        14   2.5748708           5310   200            231            215            0              4664           3.2385238e-13
        15   2.6834668           5696   203            237            220            0              5036           3.3404876e-13
        16   2.7848845           6114   215            246            227            0              5426           3.4406727e-13
        17   2.8765189           6519   216            252            234            0              5817           3.5392644e-13
        18   2.9802211           6944   221            261            243            0              6219           3.6369934e-13
        19   3.054743            7340   227            266            248            0              6599           3.7309201e-13
        20   3.1968719           7756   232            268            255            0              7001           3.8247333e-13
        21   3.2820342           8133   233            269            259            0              7372           3.914952e-13 
        22   3.3651384           8539   238            274            266            0              7761           4.005243e-13 
        23   3.4853416           8941   240            277            279            0              8145           4.0939464e-13
        24   3.5838406           9328   242            279            284            0              8523           4.1814725e-13
        25   3.6580958           9732   247            282            291            0              8912           4.2667811e-13
        26   3.7441565          10125   253            285            296            0              9291           4.3502235e-13
        27   3.8255921          10542   258            291            303            0              9690           4.4337202e-13
        28   3.9346457          10958   264            295            311            0              10088          4.5145783e-13
        29   4.0399329          11351   269            299            317            0              10466          4.5923765e-13
        30   4.2141616          11794   273            307            322            0              10892          4.6707478e-13
        31   4.3335121          12206   279            309            331            0              11287          4.7463857e-13
        32   4.4624136          12619   282            315            334            0              11688          4.8207124e-13
        33   4.6339571          13041   286            318            345            0              12092          4.8952081e-13
        34   4.8455711          13452   288            318            356            0              12490          4.9673908e-13
        35   5.0109441          13864   297            321            358            0              12888          5.0362572e-13
        36   5.2411435          14286   298            324            360            0              13304          5.1033544e-13
        37   5.5916278          14689   302            327            365            0              13695          5.1685521e-13
        38   6.1464181          15129   308            332            371            0              14118          5.2342149e-13
        39   6.4364406          15541   310            333            374            0              14524          5.2952308e-13
        40   7.3994925          15961   313            336            377            0              14935          5.3547441e-13
        41   8.2223679          16396   317            338            383            0              15358          5.4132123e-13
        42   9.0642926          16827   321            344            387            0              15775          5.4699387e-13
        43   9.9582872          17251   321            345            390            0              16195          5.5256997e-13
        44   10.830428          17674   322            346            393            0              16613          5.5794869e-13
        45   11.716038          18101   327            350            396            0              17028          5.6333445e-13
        46   12.638158          18540   329            354            401            0              17456          5.6870804e-13
        47   13.550333          18957   330            356            407            0              17864          5.7383427e-13
        48   14.487986          19419   331            357            414            0              18317          5.7909375e-13
        49   15.464592          19840   334            358            417            0              18731          5.8405368e-13
        50   16.511223          20256   337            360            421            0              19138          5.8889035e-13
        51   17.516598          20708   342            361            423            0              19582          5.9375252e-13
        52   18.54354           21139   345            363            425            0              20006          5.9840706e-13
        53   19.589028          21580   347            366            430            0              20437          6.0305064e-13
        54   20.68708           22011   349            366            430            0              20866          6.0758574e-13
        55   21.786309          22433   352            366            435            0              21280          6.1190526e-13
        56   22.910595          22882   355            368            437            0              21722          6.1641183e-13
        57   24.062813          23332   358            369            440            0              22165          6.2082577e-13
        58   25.239099          23760   360            375            443            0              22582          6.2496328e-13
        59   26.424354          24231   364            379            448            0              23040          6.2923472e-13
        60   56.037571          24664   365            380            449            0              23470          6.3325902e-13
        61   57.278551          25124   367            384            453            0              23920          6.3737431e-13
        62   58.536481          25573   368            388            458            0              24359          6.4138482e-13
        63   59.848477          26023   368            388            462            0              24805          6.4535535e-13
        64   61.166112          26466   370            388            466            0              25242          6.491456e-13 
        65   62.511128          26922   371            390            472            0              25689          6.5302409e-13
        66   63.903908          27374   373            391            476            0              26134          6.5696566e-13
        67   65.29405           27824   373            394            480            0              26577          6.6071299e-13
        68   66.724939          28271   374            394            482            0              27021          6.6447758e-13
        69   68.170094          28718   374            395            484            0              27465          6.6805771e-13
        70   69.725999          29150   374            396            487            0              27893          6.716246e-13 
        71   71.242205          29589   376            397            490            0              28326          6.7506639e-13
        72   72.79316           30059   378            398            493            0              28790          6.7861735e-13
        73   74.364127          30508   379            398            494            0              29237          6.8198831e-13
        74   75.981241          30950   379            400            498            0              29673          6.852265e-13 
        75   77.611512          31399   380            400            499            0              30120          6.8833033e-13
        76   79.272237          31839   383            402            500            0              30554          6.9135167e-13
        77   80.993013          32295   387            404            502            0              31002          6.9446965e-13
        78   82.74509           32750   388            406            504            0              31452          6.976215e-13 
        79   84.526881          33206   388            408            507            0              31903          7.0075815e-13
        80   86.440986          33666   390            409            507            0              32360          7.0390317e-13
        81   88.302846          34112   394            409            509            0              32800          7.0682778e-13
        82   90.186177          34594   397            411            510            0              33276          7.1005224e-13
        83   92.100584          35038   398            411            512            0              33717          7.1301428e-13
        84   94.054436          35506   398            411            515            0              34182          7.1614682e-13
        85   96.064267          35968   398            415            520            0              34635          7.1915875e-13
        86   98.137488          36414   398            416            521            0              35079          7.2229879e-13
        87   100.26107          36876   399            417            524            0              35536          7.2577538e-13
        88   102.4189           37330   399            420            530            0              35981          7.295542e-13 
        89   104.66043          37798   400            422            532            0              36444          7.3344757e-13
        90   107.00773          38235   402            422            538            0              36873          7.3743919e-13
        91   109.31876          38720   405            422            544            0              37349          7.4182895e-13
        92   111.6565           39154   405            423            553            0              37773          7.4605662e-13
        93   114.14908          39640   406            423            561            0              38250          7.50757e-13  
        94   116.59348          40066   407            423            569            0              38667          7.557618e-13 
        95   119.06083          40540   407            423            579            0              39131          7.6118219e-13
        96   121.59849          40983   407            423            595            0              39558          7.6664042e-13
        97   124.27216          41434   407            424            602            0              40001          7.7239899e-13
        98   126.98272          41878   410            425            617            0              40426          7.7869717e-13
        99   129.70406          42334   411            425            631            0              40867          7.856044e-13 
       100   132.53266          42758   411            426            642            0              41279          7.9266342e-13
       101   135.38714          43206   413            426            662            0              41705          7.9996262e-13
       102   138.18852          43613   416            427            678            0              42092          8.0732147e-13
       103   141.08778          44067   420            428            695            0              42524          8.148987e-13 
       104   144.02391          44480   421            430            715            0              42914          8.2255426e-13
       105   146.93891          44917   421            430            731            0              43335          8.3064877e-13
       106   149.94521          45319   422            430            755            1              43711          8.3874466e-13
       107   152.98396          45759   427            432            774            1              44125          8.4738751e-13
       108   156.04474          46181   428            435            803            1              44514          8.5606313e-13
       109   159.13312          46585   430            437            820            1              44897          8.6461161e-13
       110   162.39781          47013   432            440            840            1              45300          8.7333354e-13
       111   165.61175          47427   432            441            857            1              45696          8.8208887e-13
       112   168.86369          47855   433            444            882            1              46095          8.9096141e-13
       113   172.20417          48280   435            444            903            1              46497          8.9969304e-13
       114   175.5394           48688   440            445            923            1              46879          9.0796693e-13
       115   178.92748          49104   445            448            936            1              47274          9.1549166e-13
       116   182.47616          49536   448            454            948            2              47684          9.2299452e-13
       117   185.98938          49949   452            460            964            3              48070          9.2960863e-13
       118   189.50734          50344   457            463            978            4              48442          9.3549384e-13
       119   193.11563          50783   463            465            990            7              48858          9.4122621e-13
       120   196.93895          51214   466            469            991            11             49277          9.4641395e-13
       121   200.58029          51639   468            472            994            16             49689          9.5087983e-13
       122   204.36759          52084   471            476            999            18             50120          9.5503193e-13
       123   208.20407          52514   472            479            999            23             50541          9.5851106e-13
       124   211.99781          53010   477            484            1000           28             51021          9.6148753e-13
       125   215.77622          53480   484            486            999            32             51479          9.638963e-13 
       126   219.68754          53989   485            489            1003           34             51978          9.6640766e-13
       127   223.57636          54508   488            489            999            39             52493          9.6863372e-13
       128   227.5842           55002   491            492            997            42             52980          9.7047506e-13
       129   231.57058          55545   492            493            994            46             53520          9.7225902e-13
       130   235.76813          56070   493            495            991            50             54041          9.7367069e-13
       131   239.86361          56619   493            495            987            55             54589          9.7501303e-13
       132   243.97973          57185   498            496            981            61             55149          9.7631951e-13
       133   248.20859          57743   501            496            979            63             55704          9.775722e-13 
       134   252.47289          58323   501            500            976            67             56279          9.7871215e-13
       135   256.81975          58918   505            506            975            69             56863          9.7995048e-13
       136   261.2425           59480   507            506            973            71             57423          9.810054e-13 
       137   265.73245          60070   508            507            971            73             58011          9.8204543e-13
       138   270.28667          60659   508            508            969            75             58599          9.8320606e-13
       139   274.92782          61249   509            508            966            79             59187          9.8442522e-13
       140   279.78292          61802   510            509            963            83             59737          9.854824e-13 
       141   284.56978          62389   510            509            960            87             60323          9.8668681e-13
       142   289.46027          62967   510            509            956            91             60901          9.8785854e-13
       143   294.39636          63534   511            510            954            94             61465          9.8903269e-13
       144   299.42084          64110   511            511            953            95             62040          9.9024123e-13
       145   304.50199          64689   511            512            951            97             62618          9.9147216e-13
       146   309.66581          65261   511            513            948            101            63188          9.9277813e-13
       147   314.89946          65845   513            514            944            105            63769          9.9421497e-13
       148   320.20574          66424   516            515            939            110            64344          9.9563093e-13
       149   325.58904          66993   516            516            938            112            64911          9.9708976e-13
       150   331.19918          67573   517            517            938            112            65489          9.98567e-13  
       151   336.76691          68139   517            519            936            114            66053          1.00007e-12  
       152   342.39346          68701   517            519            934            116            66615          1.00143e-12  
       153   348.07563          69290   517            519            933            117            67204          1.0029584e-12
       154   353.83459          69848   519            520            933            118            67758          1.004409e-12 
       155   359.66285          70434   520            522            933            118            68341          1.0058914e-12
       156   365.55994          71015   522            523            931            120            68919          1.0073597e-12
       157   371.55201          71598   522            523            928            123            69502          1.0088658e-12
       158   377.63128          72158   522            523            923            128            70062          1.0103416e-12
       159   383.78405          72742   525            523            922            129            70643          1.0118925e-12
       160   390.30949          73325   526            523            917            134            71225          1.013425e-12 
       161   396.59799          73904   526            523            918            135            71802          1.0150567e-12
       162   402.98122          74464   526            523            916            137            72362          1.0166361e-12
       163   409.44624          75060   528            523            912            141            72956          1.0183459e-12
       164   415.97481          75617   529            523            908            145            73512          1.0199916e-12
       165   422.56513          76195   529            524            904            149            74089          1.0216852e-12
       166   429.23371          76779   531            525            905            149            74669          1.0234648e-12
       167   435.97203          77349   533            526            904            151            75235          1.0251324e-12
       168   442.78865          77942   533            526            900            156            75827          1.026971e-12 
       169   449.6762           78517   535            527            900            156            76399          1.0286942e-12
       170   456.83275          79095   535            528            897            159            76976          1.0304637e-12
       171   463.89677          79684   537            530            898            161            77558          1.0322391e-12
       172   471.12543          80264   537            530            897            164            78136          1.0340468e-12
       173   478.35712          80852   537            530            895            168            78722          1.0358831e-12
       174   485.66978          81441   537            531            892            171            79310          1.0378509e-12
       175   493.08732          82021   537            531            892            171            79890          1.0397251e-12
       176   500.56442          82580   537            532            894            171            80446          1.0415615e-12
       177   508.11131          83167   538            532            892            174            81031          1.0435006e-12
       178   515.79968          83749   539            532            891            176            81611          1.0454329e-12
       179   523.52586          84313   539            532            889            178            82175          1.0474017e-12
       180   531.53215          84918   540            535            885            182            82776          1.0494525e-12
       181   539.41416          85466   540            535            882            186            83323          1.0513566e-12
       182   547.3746           86072   541            536            880            188            83927          1.053464e-12 
       183   555.42288          86644   542            537            880            188            84497          1.0553138e-12
       184   563.53888          87231   542            538            879            190            85082          1.0572903e-12
       185   571.71753          87792   542            538            877            192            85643          1.0592043e-12
       186   579.96316          88400   543            538            876            194            86249          1.061325e-12 
       187   588.30819          88960   544            538            875            195            86808          1.0632591e-12
       188   596.73523          89561   545            539            869            201            87407          1.0653716e-12
       189   605.23892          90120   547            540            867            203            87963          1.0672838e-12
       190   614.0675           90744   549            541            865            206            88583          1.0695487e-12
       191   622.73423          91281   549            541            863            208            89120          1.071389e-12 
       192   631.55506          91905   550            541            865            208            89741          1.0736442e-12
       193   640.38354          92456   550            541            864            209            90292          1.0756081e-12
       194   649.32121          93048   551            541            866            209            90881          1.0778152e-12
       195   658.34236          93628   551            542            865            210            91460          1.0799171e-12
       196   667.41377          94219   551            542            863            212            92051          1.0820521e-12
       197   676.57924          94799   551            542            861            214            92631          1.0840975e-12
       198   685.84274          95395   551            542            859            216            93227          1.0862951e-12
       199   695.15684          95975   551            543            856            219            93806          1.0884104e-12
       200   704.77684          96555   553            543            857            220            94382          1.0905803e-12
       201   714.28488          97135   553            543            855            222            94962          1.0927001e-12
       202   723.91656          97728   553            543            855            223            95554          1.0949293e-12
       203   733.57257          98304   553            543            852            226            96130          1.0970033e-12
       204   743.32639          98916   554            543            850            228            96741          1.0992349e-12
       205   753.17983          99471   554            543            846            232            97296          1.1012121e-12
       206   763.1144          100083   554            544            845            234            97906          1.1035213e-12
       207   773.13305         100648   554            544            844            235            98471          1.1056171e-12
       208   783.24492         101248   555            544            842            237            99070          1.1079134e-12
       209   793.49012         101831   556            543            838            242            99652          1.1100591e-12
       210   804.02601         102423   556            545            840            242            100240         1.1123318e-12
       211   814.43932         103019   557            545            839            244            100834         1.1145516e-12
       212   824.9487          103600   559            545            838            245            101413         1.1167806e-12
       213   835.4992          104205   560            545            836            247            102017         1.1190818e-12
       214   846.13252         104775   560            545            835            248            102587         1.1212418e-12
       215   856.89818         105388   560            545            834            249            103200         1.1236164e-12
       216   867.70908         105955   560            546            832            251            103766         1.1257691e-12
       217   878.66476         106571   560            546            830            254            104381         1.1280955e-12
       218   889.71773         107162   560            547            830            255            104970         1.1304209e-12
       219   900.83636         107756   560            549            827            259            105561         1.1327373e-12
       220   912.32011         108355   560            549            826            260            106160         1.1351388e-12
       221   923.63321         108936   560            549            825            261            106741         1.137489e-12 
       222   935.06836         109541   560            549            822            266            107344         1.1399882e-12
       223   946.52695         110117   560            549            823            266            107919         1.1423594e-12
       224   958.10511         110722   560            549            819            270            108524         1.1449199e-12
       225   969.77929         111306   561            549            818            273            109105         1.1474341e-12
       226   981.51648         111906   561            549            817            277            109702         1.1500219e-12
       227   993.33811         112513   561            549            812            283            110308         1.1526629e-12
       228   1005.2269         113094   561            549            811            286            110887         1.1552942e-12
       229   1017.2326         113701   562            549            807            291            111492         1.1580842e-12
       230   1029.5841         114282   562            548            808            294            112070         1.1607555e-12
       231   1041.8192         114886   562            548            809            297            112670         1.1638099e-12
       232   1054.1768         115475   562            548            810            298            113257         1.166984e-12 
       233   1066.5588         116057   562            548            814            300            113833         1.1703908e-12
       234   1079.1059         116655   564            547            812            306            114426         1.1738105e-12
       235   1091.7205         117223   564            548            809            312            114990         1.1774787e-12
       236   1104.4045         117836   565            548            809            319            115595         1.1814365e-12
       237   1117.2059         118396   565            547            810            326            116148         1.1854153e-12
       238   1130.0478         119010   565            547            818            328            116752         1.1897498e-12
       239   1143.119          119566   564            547            819            333            117303         1.1939932e-12
       240   1156.4694         120160   564            547            822            336            117891         1.1990325e-12
       241   1169.5646         120714   565            546            825            345            118433         1.2042522e-12
       242   1182.7913         121323   565            546            830            353            119029         1.2099526e-12
       243   1196.1171         121867   566            545            835            361            119560         1.2155198e-12
       244   1209.5734         122455   567            545            839            370            120134         1.2218509e-12
       245   1223.1533         122999   570            543            855            374            120657         1.2284126e-12
       246   1236.7887         123563   571            545            867            380            121200         1.2358145e-12
       247   1250.5508         124096   574            545            877            386            121714         1.2433248e-12
       248   1264.4085         124664   575            546            894            391            122258         1.2514488e-12
       249   1278.31           125155   576            547            914            398            122720         1.2597043e-12
       250   1292.5912         125686   580            549            925            403            123229         1.2680879e-12
       251   1306.7111         126191   585            553            935            410            123708         1.2760162e-12
       252   1320.9447         126685   588            554            944            416            124183         1.2836609e-12
       253   1335.2803         127157   591            558            952            423            124633         1.2908403e-12
       254   1349.6645         127676   597            566            966            428            125119         1.2975416e-12
       255   1364.1291         128175   599            570            963            441            125602         1.3035453e-12
       256   1378.6237         128674   607            574            961            448            126084         1.3087633e-12
       257   1393.2742         129186   612            579            963            458            126574         1.3135873e-12
       258   1407.939          129722   617            586            963            464            127092         1.3175506e-12
       259   1422.5602         130274   618            590            957            475            127634         1.3211077e-12
       260   1437.5806         130841   618            592            954            484            128193         1.3243651e-12
       261   1452.4118         131432   624            593            942            496            128777         1.3273017e-12
       262   1467.3437         132069   626            597            937            507            129402         1.3300844e-12
       263   1482.3691         132696   625            597            929            517            130028         1.3325316e-12
       264   1497.5657         133376   625            596            927            525            130703         1.3349276e-12
       265   1512.8218         134019   625            596            922            533            131343         1.3371272e-12
       266   1528.1866         134697   626            595            914            542            132020         1.3393741e-12
       267   1543.6715         135396   627            597            909            549            132714         1.3416732e-12
       268   1559.2955         136066   629            597            904            556            133380         1.3438036e-12
       269   1575.0414         136784   629            597            899            562            134097         1.3462317e-12
       270   1591.2197         137465   630            597            897            564            134777         1.3484393e-12
       271   1607.1967         138175   630            597            892            570            135486         1.3508361e-12
       272   1623.299          138864   631            597            888            575            136173         1.3531193e-12
       273   1639.5            139560   632            597            889            576            136866         1.3555016e-12
       274   1655.7458         140266   632            597            884            581            137572         1.357856e-12 
       275   1672.1252         140957   632            597            879            586            138263         1.3602546e-12
       276   1688.651          141659   633            597            876            589            138964         1.362597e-12 
       277   1705.3973         142356   634            597            875            590            139660         1.3650573e-12
       278   1722.2761         143054   634            597            873            592            140358         1.3674558e-12
       279   1739.3185         143732   634            597            870            597            141034         1.3698297e-12
       280   1756.7909         144436   635            596            867            601            141737         1.3722676e-12
       281   1774.0654         145120   635            596            865            604            142420         1.3747041e-12
       282   1791.4026         145811   636            596            863            606            143110         1.3770638e-12
       283   1808.8397         146513   636            596            861            608            143812         1.3796027e-12
       284   1826.3991         147186   636            596            862            609            144483         1.3818434e-12
       285   1844.0694         147892   636            596            860            611            145189         1.384348e-12 
       286   1861.8812         148565   637            596            861            611            145860         1.3866423e-12
       287   1879.8774         149276   638            597            860            613            146568         1.3891888e-12
       288   1898.0487         149947   639            597            859            614            147238         1.3915468e-12
       289   1916.33           150649   639            597            859            615            147939         1.3940006e-12
       290   1935.0979         151322   639            597            854            620            148612         1.3962737e-12
       291   1953.635          152018   641            598            853            621            149305         1.3987053e-12
       292   1972.2479         152683   642            599            850            624            149968         1.4009806e-12
       293   1990.9857         153385   642            599            850            626            150668         1.4034698e-12
       294   2009.8929         154047   644            599            847            629            151328         1.4057217e-12
       295   2028.9245         154758   646            599            845            631            152037         1.4083205e-12
       296   2048.0519         155425   646            600            843            633            152703         1.4106191e-12
       297   2067.2847         156133   647            601            840            636            153409         1.4130977e-12
       298   2086.6818         156798   648            601            834            643            154072         1.4154366e-12
       299   2106.1918         157506   648            601            833            646            154778         1.4179097e-12
       300   2126.1917         158182   648            600            832            648            155454         1.4203243e-12
Loop time of 2126.19 on 16 procs for 300 steps with 158182 atoms

96.8% CPU use with 16 MPI tasks x 1 OpenMP threads

MPI task timing breakdown:
Section |  min time  |  avg time  |  max time  |%varavg| %total
---------------------------------------------------------------
Pair    | 642.27     | 689.63     | 723.4      |  89.7 | 32.44
Neigh   | 670.82     | 715.36     | 782.57     | 111.1 | 33.65
Comm    | 180.9      | 185.19     | 190.81     |  17.0 |  8.71
Output  | 33.828     | 33.828     | 33.829     |   0.0 |  1.59
Modify  | 397.18     | 495.29     | 580.57     | 229.7 | 23.29
Other   |            | 6.884      |            |       |  0.32

Nlocal:        9886.38 ave       10333 max        9584 min
Histogram: 4 0 1 1 4 4 0 0 1 1
Nghost:        7620.56 ave        7826 max        7354 min
Histogram: 1 1 2 1 2 1 2 2 1 3
Neighs:         119820 ave      129902 max      113542 min
Histogram: 4 0 1 4 4 1 0 1 0 1

Total # of neighbors = 1917120
Ave neighs/atom = 12.11971
Neighbor list builds = 26354
Dangerous builds = 26054

Total wall time: 0:35:26
