LAMMPS (23 Jun 2022 - Update 4)
  using 1 OpenMP thread(s) per MPI task
package omp 0
using multi-threaded neighbor list subroutines
#-----------------------------------------------------------------------------#
#                NUFEB Simulation: Heterotrophic Biofilm Growth               #
#-----------------------------------------------------------------------------#


#-----------------------------System Settings---------------------------------#

units si                                    # using si units (m, s, kg)
atom_style      coccus                      # using nufeb coccus atom style
atom_modify     map array sort 10 0         # map array - find atoms using indices
		                            # sort every 10

boundary        pp pp ff                    # periodic boundaries in x and y
                                            # fixed boundary in z

newton          off                         # forces between local and ghost
                                            # atoms are computed in each
					     # processor without communication

processors      * * 1                       # processor grid

comm_modify     vel yes                     # communicate velocities for ghost atoms

read_data       atom_ch.in	             # read atom.in file which defines domain size
Reading data file ...
  orthogonal box = (0 0 0) to (6e-05 6e-05 6e-05)
  4 by 4 by 1 MPI processor grid
  reading atoms ...
  150 atoms
  read_data CPU = 0.103 seconds
                                            # and initial atoms


#--------------------Microbes and Functional Groups-------------------------#

group           CROSS1   type 1               # assign type 1,2 atoms to CROSS group
50 atoms in group CROSS1
group           CROSS2   type 2
50 atoms in group CROSS2
group		CHEATER  type 3
50 atoms in group CHEATER
group           dead     type 4
0 atoms in group dead
group		EPS	 type 5
0 atoms in group EPS

neighbor        5e-7 bin                   # setting neighbour skin distance and style

neigh_modify    check yes                  # rebuild neighbour list if any atom
                                           # had moved more than half the skin distance


#--------------------------Mesh Grid and Substrates--------------------------#

# defining grid sytle, substrate names, and grid size
grid_style      nufeb/chemostat 3 sub metab1 metab2 5e-6

# set diffusion boundary conditions and initial concentrations (liquid:kg/m3)
grid_modify     set sub      pp pp nd  1.8e-4
No /omp style for force computation currently active
grid_modify     set metab1   pp pp nd  1e-4
No /omp style for force computation currently active
grid_modify     set metab2   pp pp nd  1e-4
No /omp style for force computation currently active


#--------------------------Biological Processes-------------------------------#

# heterotrophs growth
fix growth_cross1 CROSS1 nufeb/growth/cross1 sub 3.5e-5 metab2 4e-3 metab1 growth 0.009 yield 0.6 decay 2.6e-6 metab1_exp 20 epsyield 0.12 epsdens 30

fix growth_cross2 CROSS2 nufeb/growth/cross2 sub 3.5e-5 metab1 4e-3 metab2 growth 0.009 yield 0.6 decay 2.6e-6 metab2_exp 20 epsyield 0.12 epsdens 30

fix growth_cheater CHEATER nufeb/growth/cheater sub 3.5e-5 metab1 1e-3 metab2 1e-3 growth 0.009 yield 0.6 decay 2.6e-6 epsyield 0.12 epsdens 30

# heterotrophs division, division diameter: 1.36e-6
fix div1 CROSS1 nufeb/division/coccus 1.36e-6 184
fix div2 CROSS2 nufeb/division/coccus 1.36e-6 430
fix div3 CHEATER nufeb/division/coccus 1.36e-6 838

fix death1 CROSS1 nufeb/death/diameter dead 5.43e-7
fix death2 CROSS2 nufeb/death/diameter dead 5.43e-7
fix death3 CHEATER nufeb/death/diameter dead 5.43e-7

# EPS secretion from heterotrophs
fix eps1 CROSS1 nufeb/eps_secretion 5 EPS 1.1 30 1408
fix eps2 CROSS2 nufeb/eps_secretion 5 EPS 1.1 30 2140
fix eps3 CROSS2 nufeb/eps_secretion 5 EPS 1.1 30 3034
#---------------------------Physical Processes--------------------------------#

pair_style  gran/hooke/history 1e-4 NULL 1e-5 NULL 0.0 0    # pairwise interaction
pair_coeff  * *                                             # between atoms

# pairwise interaction between z-wall and atoms
fix wall all wall/gran hooke/history 1e-3 NULL 1e-4 NULL 0 0 zplane 0.0 1e-04

fix vis all viscous 1e-5                                    # viscous damping force

fix grav all gravity 9.81 vector 0.0 0.0 -1.0

fix nve all nve/limit 1e-7                                  # NVE integration with
                                                            # maximum distance limit


#---------------------------Post-Physical Processes---------------------------#

fix coeff_sub all nufeb/diffusion_coeff sub ratio 0.8       # defining diffusion coeff in the biofilm
fix coeff_metab1 all nufeb/diffusion_coeff metab1 ratio 0.8    # region is 80% of the value in liquid
fix coeff_metab2 all nufeb/diffusion_coeff metab2 ratio 0.8

#---------------------------Chemical Processes---------------------------------#

fix diff_sub all nufeb/diffusion_reaction sub 1e-9        # diffusion reaction for updating
fix diff_metab1 all nufeb/diffusion_reaction metab1 4e-9     # distribusion of substrate concentration
fix diff_metab2 all nufeb/diffusion_reaction metab2 4e-9

#--------------------------Computations and Outputs----------------------------#

variable mass equal "mass(all)"                             # total mass
variable ncross1 equal "count(CROSS1)"                      # total # of CROSS1
variable ncross2 equal "count(CROSS2)"                      # total # of CROSS2
variable ncheater equal "count(CHEATER)"
variable ndead equal "count(dead)"
variable neps equal "count(EPS)"

shell mkdir vtk_CHEPS_ch                                            # dump vtk files to /vtk folder
dump du1 all vtk 10 vtk_CHEPS_ch/dump*.vtu id type diameter         # require build NUFEB with vtk option
dump du2 all grid/vtk 10 vtk_CHEPS_ch/dump_%_*.vti con rea den gro

#dump du3 all movie 10 movie.avi type diameter view 80 60    # dump video
#dump_modify du3 acolor 1 blue acolor 2 lightgrey framerate 10


                                                            # dump hdf5 files to /hdf5 folder
#shell mkdir hdf5                                           # require build NUFEB with hdf5 option
#dump du3 all nufeb/hdf5 10 dump.h5 id type x y z vx vy vz fx fy fz radius conc reac

thermo_style custom step cpu atoms v_ncross1 v_ncross2 v_ncheater v_ndead v_neps v_mass     # screen and log outputs
thermo 1
thermo_modify   lost ignore

#-----------------------------------Run----------------------------------------#

# issue run command, define timesteps for physical (pairdt) and chemical (diffdt) processes
run_style nufeb diffdt 1e-4 difftol 1e-6 pairdt 1e-2 pairtol 1 pairmax 1000 diffmax 5000

timestep 12000                                               # define biological timesteps (1000s)

run 300                                                    # growing biofilm for 900x1000s
Generated 0 of 6 mixed pair_coeff terms from geometric mixing rule
Last active /omp style is pair_style gran/hooke/history/omp
Neighbor list info ...
  update every 1 steps, delay 10 steps, check yes
  max neighbors/atom: 2000, page size: 100000
  master list distance cutoff = 2.49e-06
  ghost atom cutoff = 2.49e-06
  binsize = 1.245e-06, bins = 49 49 49
  1 neighbor lists, perpetual/occasional/extra = 1 0 0
  (1) pair gran/hooke/history/omp, perpetual
      attributes: half, newton off, size, history, omp
      pair build: half/size/bin/newtoff/omp
      stencil: full/bin/3d
      bin: standard
Per MPI rank memory allocation (min/avg/max) = 11.02 | 11.02 | 11.02 Mbytes
   Step          CPU          Atoms      v_ncross1      v_ncross2      v_ncheater      v_ndead         v_neps         v_mass    
         0   0                    150   50             50             50             0              0              1.3295396e-13
         1   0.38553971           489   90             85             83             0              231            1.6433676e-13
         2   0.76475568           901   119            126            123            0              533            1.8131036e-13
         3   1.0412174           1257   128            146            136            0              847            1.9555022e-13
         4   1.3214199           1585   134            153            146            0              1152           2.0859315e-13
         5   1.4931125           1915   142            160            152            0              1461           2.2117046e-13
         6   1.6243426           2262   145            170            161            0              1786           2.3346519e-13
         7   1.7448216           2616   158            175            167            0              2116           2.4545773e-13
         8   1.9029842           2972   168            181            171            0              2452           2.5717339e-13
         9   2.0690752           3345   172            195            178            0              2800           2.6872327e-13
        10   15.154198           3724   176            206            184            0              3158           2.8008236e-13
        11   15.282685           4114   182            213            193            0              3526           2.913204e-13 
        12   15.400925           4500   186            221            199            0              3894           3.0213434e-13
        13   15.497451           4881   188            223            205            0              4265           3.127353e-13 
        14   15.591065           5278   192            228            215            0              4643           3.2324452e-13
        15   15.698569           5692   204            236            218            0              5034           3.3356792e-13
        16   15.815459           6106   210            243            224            0              5429           3.4363333e-13
        17   15.940331           6525   217            248            230            0              5830           3.5354251e-13
        18   16.073657           6931   220            256            234            0              6221           3.6304853e-13
        19   16.166395           7337   222            259            242            0              6614           3.7239838e-13
        20   31.29976            7741   225            264            247            0              7005           3.8156217e-13
        21   31.437289           8150   229            270            257            0              7394           3.9068578e-13
        22   31.52933            8557   232            273            264            0              7788           3.9945737e-13
        23   31.634993           8973   238            277            272            0              8186           4.0815538e-13
        24   31.773927           9371   245            281            278            0              8567           4.1646809e-13
        25   31.905287           9782   249            286            281            0              8966           4.2469154e-13
        26   32.00704           10182   254            290            284            0              9354           4.3268954e-13
        27   32.146837          10605   257            295            297            0              9756           4.4062766e-13
        28   32.244861          11015   265            298            302            0              10150          4.482882e-13 
        29   32.325686          11427   269            303            307            0              10548          4.5581971e-13
        30   32.484831          11831   273            308            313            0              10937          4.6320642e-13
        31   32.590313          12272   278            313            316            0              11365          4.7061275e-13
        32   32.70704           12664   285            315            321            0              11743          4.7760317e-13
        33   32.839319          13099   286            318            325            0              12170          4.8474209e-13
        34   33.038983          13516   289            323            330            0              12574          4.9168007e-13
        35   33.29611           13935   293            325            333            0              12984          4.9848118e-13
        36   33.599848          14357   300            327            340            0              13390          5.0510063e-13
        37   33.997556          14797   308            329            344            0              13816          5.11505e-13  
        38   34.513263          15217   312            330            348            0              14227          5.1762001e-13
        39   35.187722          15633   316            330            353            0              14634          5.2356972e-13
        40   39.545687          16075   318            334            357            0              15066          5.2932458e-13
        41   40.377337          16477   319            335            360            0              15463          5.3476084e-13
        42   41.219905          16911   322            337            365            0              15887          5.4013029e-13
        43   42.071052          17333   326            338            369            0              16300          5.4551634e-13
        44   42.936838          17760   331            340            374            0              16715          5.5071611e-13
        45   43.809976          18187   332            341            377            0              17137          5.5594374e-13
        46   44.729047          18621   335            343            381            0              17562          5.6100245e-13
        47   45.64674           19046   337            344            382            0              17983          5.6596123e-13
        48   46.587378          19464   343            347            385            0              18389          5.7077087e-13
        49   47.551381          19924   348            351            392            0              18833          5.7564898e-13
        50   48.611156          20359   348            353            396            0              19262          5.8032081e-13
        51   49.616009          20785   350            354            399            0              19682          5.8485245e-13
        52   50.637328          21222   351            354            403            0              20114          5.8932412e-13
        53   51.694178          21658   355            357            407            0              20539          5.9378824e-13
        54   52.789924          22115   360            360            409            0              20986          5.9831374e-13
        55   53.877888          22543   361            363            411            0              21408          6.0248939e-13
        56   55.006442          22998   367            364            413            0              21854          6.0676991e-13
        57   56.172331          23429   367            366            415            0              22281          6.1083122e-13
        58   57.354238          23879   371            366            417            0              22725          6.1490285e-13
        59   58.547983          24325   373            366            417            0              23169          6.1889859e-13
        60   59.995147          24763   374            367            420            0              23602          6.2282608e-13
        61   61.242576          25202   375            370            423            0              24034          6.2666919e-13
        62   62.517564          25672   380            372            427            0              24493          6.305867e-13 
        63   63.822759          26114   381            376            429            0              24928          6.343449e-13 
        64   65.153858          26572   381            377            434            0              25380          6.3813963e-13
        65   66.516852          27008   381            378            434            0              25815          6.416974e-13 
        66   67.909634          27446   382            379            437            0              26248          6.4525016e-13
        67   69.329925          27906   384            382            438            0              26702          6.4893136e-13
        68   70.803777          28364   385            384            441            0              27154          6.5256591e-13
        69   72.278496          28812   387            385            443            0              27597          6.5578956e-13
        70   80.933746          29266   391            386            448            0              28041          6.590653e-13 
        71   82.472439          29727   393            388            452            0              28494          6.6229432e-13
        72   84.038363          30186   394            389            452            0              28951          6.6556042e-13
        73   85.643091          30618   396            391            452            0              29379          6.6864544e-13
        74   87.284884          31103   397            392            453            0              29861          6.7197044e-13
        75   88.957818          31521   400            393            455            0              30273          6.7488998e-13
        76   90.668842          32015   402            393            455            0              30765          6.781171e-13 
        77   92.431395          32449   408            394            459            0              31188          6.8094714e-13
        78   94.244188          32928   409            394            460            0              31665          6.841569e-13 
        79   96.084891          33376   410            395            465            0              32106          6.8713277e-13
        80   98.053455          33851   411            397            466            0              32577          6.9028501e-13
        81   99.957044          34307   413            397            467            0              33030          6.9329514e-13
        82   101.8642           34773   415            399            467            0              33492          6.9620235e-13
        83   103.83841          35224   416            400            469            0              33939          6.9911848e-13
        84   105.86305          35708   417            402            471            0              34418          7.0210158e-13
        85   107.8967           36154   418            402            474            0              34860          7.0512078e-13
        86   109.97784          36643   418            403            480            0              35342          7.0824088e-13
        87   112.11168          37077   418            403            482            0              35774          7.1128396e-13
        88   114.28028          37569   420            406            486            0              36257          7.1462882e-13
        89   116.55805          38013   423            407            488            0              36695          7.1770189e-13
        90   118.96504          38506   424            409            493            0              37180          7.2116199e-13
        91   121.2825           38948   425            410            496            0              37617          7.2447272e-13
        92   123.67811          39422   427            410            500            0              38085          7.2807108e-13
        93   126.16703          39868   427            412            508            0              38521          7.3183781e-13
        94   128.702            40340   429            412            515            0              38984          7.3608699e-13
        95   131.28374          40818   430            414            524            0              39450          7.4078824e-13
        96   133.90323          41262   430            417            532            0              39883          7.4562679e-13
        97   136.58103          41717   432            418            539            0              40328          7.5071543e-13
        98   139.26943          42187   432            421            548            0              40786          7.5618335e-13
        99   142.03822          42636   432            422            557            0              41225          7.6175574e-13
       100   144.96873          43090   433            424            574            0              41659          7.6769784e-13
       101   147.81179          43529   434            424            581            0              42090          7.7389646e-13
       102   150.7529           43968   435            425            593            0              42515          7.8018821e-13
       103   153.71442          44436   438            430            615            0              42953          7.8708533e-13
       104   156.71304          44887   441            432            629            0              43385          7.9411305e-13
       105   159.7818           45319   444            434            648            0              43793          8.0115272e-13
       106   162.89627          45764   446            435            666            0              44217          8.0816687e-13
       107   166.0229           46192   447            438            682            0              44625          8.151138e-13 
       108   169.18736          46608   450            442            690            0              45026          8.2189148e-13
       109   172.42885          47064   450            446            706            0              45462          8.286807e-13 
       110   175.8359           47486   458            447            720            0              45861          8.3522419e-13
       111   179.16224          47933   462            450            730            2              46289          8.4183427e-13
       112   182.57951          48335   464            453            744            2              46672          8.4826863e-13
       113   186.00565          48785   471            458            755            2              47099          8.5478047e-13
       114   189.50081          49221   477            464            763            3              47514          8.6099394e-13
       115   193.0338           49649   483            467            770            5              47924          8.6682845e-13
       116   196.58042          50086   487            469            775            8              48347          8.726012e-13 
       117   200.18749          50515   490            473            783            9              48760          8.7824366e-13
       118   203.80293          50984   494            481            790            9              49210          8.8357254e-13
       119   207.48236          51483   501            485            798            11             49688          8.8875482e-13
       120   211.41486          51956   504            490            805            13             50144          8.9339201e-13
       121   215.18786          52437   508            492            811            14             50612          8.9757927e-13
       122   218.97746          52934   513            495            812            18             51096          9.0148668e-13
       123   222.87923          53450   514            496            812            20             51608          9.0526116e-13
       124   226.80761          53966   516            501            813            22             52114          9.0863612e-13
       125   230.72446          54482   520            502            814            23             52623          9.1157644e-13
       126   234.71061          55022   522            503            818            26             53153          9.1451097e-13
       127   238.83197          55582   524            505            814            31             53708          9.1734134e-13
       128   243.07205          56107   524            505            813            35             54230          9.1984908e-13
       129   247.23437          56691   525            508            811            37             54810          9.2212384e-13
       130   251.63128          57255   528            508            808            40             55371          9.2426992e-13
       131   255.94754          57848   528            509            806            42             55963          9.2633045e-13
       132   260.33577          58430   528            509            805            43             56545          9.2826242e-13
       133   264.82009          59009   528            510            802            46             57123          9.3018762e-13
       134   269.35057          59600   529            510            797            51             57713          9.3207194e-13
       135   273.96627          60194   530            512            795            54             58303          9.3395868e-13
       136   278.65925          60775   532            512            792            58             58881          9.3580441e-13
       137   283.41483          61353   532            512            793            58             59458          9.3767338e-13
       138   288.26196          61961   533            512            787            64             60065          9.3964344e-13
       139   293.23082          62536   534            514            783            68             60637          9.4145399e-13
       140   298.42662          63127   534            514            782            69             61228          9.4332522e-13
       141   303.5514           63697   534            514            778            73             61798          9.4506879e-13
       142   308.77474          64295   535            514            773            78             62395          9.4696444e-13
       143   314.044            64858   536            515            768            83             62956          9.4867064e-13
       144   319.39799          65461   536            516            766            85             63558          9.5065784e-13
       145   324.82749          66020   536            517            764            87             64116          9.5246577e-13
       146   330.34313          66613   537            517            761            90             64708          9.5443881e-13
       147   335.959            67187   538            520            760            92             65277          9.5631256e-13
       148   341.64673          67796   539            522            756            96             65883          9.5840111e-13
       149   347.41345          68367   539            523            753            100            66452          9.6023915e-13
       150   353.41607          68963   540            523            751            103            67046          9.6228977e-13
       151   359.3506           69557   541            525            748            108            67635          9.64329e-13  
       152   365.34305          70123   541            525            747            110            68200          9.6630034e-13
       153   371.43956          70725   541            525            741            116            68802          9.6839386e-13
       154   377.62843          71302   542            527            738            119            69376          9.7037739e-13
       155   383.93289          71890   542            528            736            121            69963          9.7244819e-13
       156   390.31664          72466   544            528            733            124            70537          9.7438646e-13
       157   396.78135          73078   545            528            729            128            71148          9.765397e-13 
       158   403.31113          73638   547            528            723            134            71706          9.7847445e-13
       159   409.9343           74233   547            528            723            135            72300          9.8051924e-13
       160   416.83452          74820   547            529            722            136            72886          9.8254364e-13
       161   423.60273          75416   547            529            722            137            73481          9.8463319e-13
       162   430.49058          75968   547            529            719            140            74033          9.8654773e-13
       163   437.50222          76580   547            529            716            143            74645          9.886773e-13 
       164   444.55881          77135   547            530            715            145            75198          9.9059178e-13
       165   451.72534          77741   549            531            712            148            75801          9.9272128e-13
       166   458.97145          78311   550            532            710            150            76369          9.947191e-13 
       167   466.27333          78894   552            532            705            155            76950          9.9679701e-13
       168   473.67959          79504   554            535            703            157            77555          9.9898346e-13
       169   481.14692          80075   554            535            701            159            78126          1.0009834e-12
       170   488.8366           80674   554            535            700            160            78725          1.003175e-12 
       171   496.42988          81246   555            535            698            162            79296          1.0051834e-12
       172   504.09331          81843   555            535            697            163            79893          1.0073353e-12
       173   511.90478          82425   557            536            695            165            80472          1.0093723e-12
       174   519.7698           83026   559            536            691            169            81071          1.0114596e-12
       175   527.7173           83625   559            538            689            172            81667          1.0135246e-12
       176   535.73196          84223   560            538            687            174            82264          1.0156373e-12
       177   543.89489          84816   561            538            687            174            82856          1.0177895e-12
       178   552.15221          85414   562            538            683            178            83453          1.0199361e-12
       179   560.48469          86009   562            539            681            180            84047          1.022033e-12 
       180   569.08946          86603   562            541            680            181            84639          1.024094e-12 
       181   577.56918          87208   562            542            678            184            85242          1.0262066e-12
       182   586.12336          87795   562            543            677            185            85828          1.0282225e-12
       183   594.75314          88388   563            543            673            189            86420          1.0302715e-12
       184   603.4808           88975   563            543            672            190            87007          1.0323234e-12
       185   612.29648          89581   563            544            668            194            87612          1.0344345e-12
       186   621.21574          90169   563            544            667            195            88200          1.0365114e-12
       187   630.23703          90779   564            546            666            196            88807          1.0386615e-12
       188   639.36026          91360   564            548            666            198            89384          1.0407708e-12
       189   648.57007          91984   564            548            662            202            90008          1.0430768e-12
       190   658.08198          92543   564            550            663            202            90564          1.0451389e-12
       191   667.49413          93172   565            550            661            204            91192          1.047426e-12 
       192   676.9378           93760   566            550            659            206            91779          1.0495811e-12
       193   686.48876          94374   567            550            656            209            92392          1.0518612e-12
       194   696.11286          94960   567            550            654            211            92978          1.0539872e-12
       195   705.83831          95556   567            551            650            215            93573          1.0562105e-12
       196   715.66943          96166   567            552            645            221            94181          1.0584381e-12
       197   725.55444          96768   567            552            643            224            94782          1.0606837e-12
       198   735.5794           97371   568            553            642            225            95383          1.0629122e-12
       199   745.64011          97970   568            553            640            227            95982          1.0651458e-12
       200   756.0587           98552   568            553            636            231            96564          1.0673141e-12
       201   766.31482          99159   568            553            635            232            97171          1.0695541e-12
       202   776.76066          99750   568            553            634            233            97762          1.0717636e-12
       203   787.24372         100364   568            554            632            235            98375          1.0740336e-12
       204   797.87353         100980   568            555            627            240            98990          1.0763258e-12
       205   808.54721         101564   568            555            624            243            99574          1.0784895e-12
       206   819.37306         102181   569            555            621            247            100189         1.0808243e-12
       207   830.27831         102795   571            559            620            248            100797         1.0831135e-12
       208   841.30792         103398   571            561            619            249            101398         1.0853074e-12
       209   852.41305         104007   571            562            616            252            102006         1.0875938e-12
       210   863.8546          104608   571            562            615            253            102607         1.08979e-12  
       211   875.20778         105226   571            562            612            256            103225         1.0920701e-12
       212   886.66556         105831   571            562            610            258            103830         1.094218e-12 
       213   898.16492         106436   572            562            607            261            104434         1.0965101e-12
       214   909.74371         107048   572            562            606            262            105046         1.0987247e-12
       215   921.4233          107659   572            562            603            267            105655         1.1009927e-12
       216   933.29272         108272   574            563            601            269            106265         1.1032712e-12
       217   945.35046         108865   574            563            597            273            106858         1.1054822e-12
       218   957.33538         109478   574            563            596            275            107470         1.1077887e-12
       219   969.44791         110068   574            563            593            278            108060         1.1100044e-12
       220   981.95658         110711   575            564            593            278            108701         1.1123349e-12
       221   994.27342         111283   575            564            591            280            109273         1.1144831e-12
       222   1006.6877         111916   575            564            586            286            109905         1.1168949e-12
       223   1019.3675         112505   574            564            583            290            110494         1.1191626e-12
       224   1032.1372         113137   574            564            581            293            111125         1.1215907e-12
       225   1044.8654         113723   574            565            580            294            111710         1.1238322e-12
       226   1057.6313         114355   574            565            580            295            112341         1.1262481e-12
       227   1070.6261         114958   573            565            578            298            112944         1.1285455e-12
       228   1083.6305         115548   573            565            576            301            113533         1.1308269e-12
       229   1096.7049         116187   573            565            573            304            114172         1.1333639e-12
       230   1110.3027         116775   573            567            571            308            114756         1.1361698e-12
       231   1123.7113         117404   574            567            573            309            115381         1.1390531e-12
       232   1137.2381         117978   574            567            571            312            115954         1.1421166e-12
       233   1150.7706         118621   574            567            578            312            116590         1.1457822e-12
       234   1164.5868         119193   575            568            578            316            117156         1.149396e-12 
       235   1178.5134         119832   575            568            583            318            117788         1.1535191e-12
       236   1192.4627         120405   575            570            592            318            118350         1.1579988e-12
       237   1206.5171         121040   575            570            596            321            118978         1.1632071e-12
       238   1220.6078         121597   574            572            599            324            119528         1.1685089e-12
       239   1234.8715         122220   575            572            606            331            120136         1.1741513e-12
       240   1249.5117         122799   575            573            620            334            120697         1.1802883e-12
       241   1263.9691         123376   577            577            627            340            121255         1.1864485e-12
       242   1278.5338         123944   579            583            636            345            121801         1.192236e-12 
       243   1293.1656         124472   581            591            640            350            122310         1.1979393e-12
       244   1307.895          125027   583            593            642            358            122851         1.2037633e-12
       245   1322.7394         125551   586            597            651            362            123355         1.2093193e-12
       246   1337.7118         126109   589            602            656            364            123898         1.2148695e-12
       247   1352.6715         126656   592            605            657            369            124433         1.2202636e-12
       248   1367.7205         127196   593            610            652            383            124958         1.2252394e-12
       249   1382.8558         127755   603            617            652            391            125492         1.230101e-12 
       250   1398.358          128309   604            622            656            393            126034         1.2348755e-12
       251   1413.666          128899   605            625            657            400            126612         1.2394851e-12
       252   1429.0543         129454   607            626            656            405            127160         1.2435838e-12
       253   1444.4543         130040   608            627            655            410            127740         1.2475918e-12
       254   1459.9744         130646   614            630            658            411            128333         1.2515312e-12
       255   1475.6231         131252   617            635            655            416            128929         1.2554841e-12
       256   1491.3219         131861   618            636            658            420            129529         1.2591529e-12
       257   1507.1867         132520   618            638            658            424            130182         1.2628815e-12
       258   1523.1404         133182   619            639            657            426            130841         1.2663424e-12
       259   1539.1867         133833   619            640            656            430            131488         1.2695886e-12
       260   1555.6713         134488   616            638            652            439            132143         1.2727764e-12
       261   1572.0132         135194   619            637            648            444            132846         1.2759443e-12
       262   1588.4829         135878   620            638            644            449            133527         1.2790276e-12
       263   1605.0514         136565   619            639            640            454            134213         1.2820532e-12
       264   1621.7579         137285   618            639            636            460            134932         1.2852017e-12
       265   1638.5754         137973   618            639            632            466            135618         1.2882374e-12
       266   1655.5086         138708   618            639            627            471            136353         1.2915212e-12
       267   1672.5557         139375   618            639            626            473            137019         1.2944558e-12
       268   1689.7429         140116   618            642            623            476            137757         1.2977501e-12
       269   1707.0862         140801   617            642            622            479            138441         1.3007224e-12
       270   1724.8826         141511   617            643            619            482            139150         1.3038288e-12
       271   1742.3697         142221   617            643            617            484            139860         1.3068464e-12
       272   1759.9733         142921   617            644            616            485            140559         1.3098056e-12
       273   1777.6814         143611   617            644            616            486            141248         1.3127643e-12
       274   1795.5014         144333   618            644            615            487            141969         1.3157785e-12
       275   1813.4401         145016   618            645            613            489            142651         1.3186905e-12
       276   1831.556          145742   618            645            611            491            143377         1.3217399e-12
       277   1849.7494         146421   618            646            609            494            144054         1.3246063e-12
       278   1868.0029         147155   618            647            608            495            144787         1.327613e-12 
       279   1886.3497         147822   618            647            608            495            145454         1.3304251e-12
       280   1905.1676         148531   618            647            606            497            146163         1.3333811e-12
       281   1923.7647         149227   618            649            606            497            146857         1.3362388e-12
       282   1942.5486         149932   618            648            606            498            147562         1.3391245e-12
       283   1961.339          150601   618            648            606            500            148229         1.3419157e-12
       284   1980.2982         151337   618            649            603            503            148964         1.3449332e-12
       285   1999.4985         152005   618            647            602            506            149632         1.3476839e-12
       286   2018.7525         152719   618            647            603            506            150345         1.3506064e-12
       287   2038.1076         153404   619            647            602            507            151029         1.353416e-12 
       288   2057.6248         154124   619            648            602            507            151748         1.356341e-12 
       289   2077.3125         154801   620            647            600            511            152423         1.3591172e-12
       290   2097.4433         155514   620            648            600            511            153135         1.3620012e-12
       291   2117.3857         156188   620            648            599            512            153809         1.3647734e-12
       292   2137.4606         156892   619            648            599            514            154512         1.3676506e-12
       293   2157.6412         157574   619            649            598            516            155192         1.3704265e-12
       294   2177.923          158286   619            651            598            516            155902         1.3732845e-12
       295   2198.3019         158960   618            651            598            517            156576         1.3759967e-12
       296   2218.7865         159666   618            651            597            518            157282         1.3789103e-12
       297   2239.4038         160345   618            651            596            520            157960         1.381615e-12 
       298   2260.1274         161034   618            651            596            521            158648         1.384462e-12 
       299   2281.0053         161739   618            653            595            522            159351         1.3873066e-12
       300   2302.3617         162422   618            652            593            526            160033         1.3900783e-12
Loop time of 2302.36 on 16 procs for 300 steps with 162422 atoms

97.0% CPU use with 16 MPI tasks x 1 OpenMP threads

MPI task timing breakdown:
Section |  min time  |  avg time  |  max time  |%varavg| %total
---------------------------------------------------------------
Pair    | 650.74     | 745.5      | 794.48     | 168.8 | 32.38
Neigh   | 678.73     | 743.13     | 809.49     | 142.2 | 32.28
Comm    | 223.59     | 231.16     | 238.07     |  28.9 | 10.04
Output  | 44.26      | 44.26      | 44.261     |   0.0 |  1.92
Modify  | 430.05     | 530.68     | 682.69     | 327.9 | 23.05
Other   |            | 7.63       |            |       |  0.33

Nlocal:        10151.4 ave       10557 max        9767 min
Histogram: 2 1 2 1 2 3 0 3 0 2
Nghost:        7844.69 ave        8089 max        7605 min
Histogram: 3 1 2 2 0 0 2 2 2 2
Neighs:         123461 ave      131962 max      114864 min
Histogram: 2 1 1 2 2 2 1 3 1 1

Total # of neighbors = 1975375
Ave neighs/atom = 12.161992
Neighbor list builds = 26430
Dangerous builds = 26130

Total wall time: 0:38:53
