LAMMPS (23 Jun 2022 - Update 4)
  using 1 OpenMP thread(s) per MPI task
package omp 0
using multi-threaded neighbor list subroutines
#-----------------------------------------------------------------------------#
#                NUFEB Simulation: Heterotrophic Biofilm Growth               #
#-----------------------------------------------------------------------------#


#-----------------------------System Settings---------------------------------#

units si                                    # using si units (m, s, kg)
atom_style      coccus                      # using nufeb coccus atom style
atom_modify     map array sort 10 0         # map array - find atoms using indices
		                            # sort every 10

boundary        pp pp ff                    # periodic boundaries in x and y
                                            # fixed boundary in z

newton          off                         # forces between local and ghost
                                            # atoms are computed in each
					     # processor without communication

processors      * * 1                       # processor grid

comm_modify     vel yes                     # communicate velocities for ghost atoms

read_data       atom_ch.in	             # read atom.in file which defines domain size
Reading data file ...
  orthogonal box = (0 0 0) to (6e-05 6e-05 6e-05)
  4 by 4 by 1 MPI processor grid
  reading atoms ...
  150 atoms
  read_data CPU = 0.096 seconds
                                            # and initial atoms


#--------------------Microbes and Functional Groups-------------------------#

group           CROSS1   type 1               # assign type 1,2 atoms to CROSS group
50 atoms in group CROSS1
group           CROSS2   type 2
50 atoms in group CROSS2
group		CHEATER  type 3
50 atoms in group CHEATER
group           dead     type 4
0 atoms in group dead
group		EPS	 type 5
0 atoms in group EPS

neighbor        5e-7 bin                   # setting neighbour skin distance and style

neigh_modify    check yes                  # rebuild neighbour list if any atom
                                           # had moved more than half the skin distance


#--------------------------Mesh Grid and Substrates--------------------------#

# defining grid sytle, substrate names, and grid size
grid_style      nufeb/chemostat 3 sub metab1 metab2 5e-6

# set diffusion boundary conditions and initial concentrations (liquid:kg/m3)
grid_modify     set sub      pp pp nd  1.8e-4
No /omp style for force computation currently active
grid_modify     set metab1   pp pp nd  1e-4
No /omp style for force computation currently active
grid_modify     set metab2   pp pp nd  1e-4
No /omp style for force computation currently active


#--------------------------Biological Processes-------------------------------#

# heterotrophs growth
fix growth_cross1 CROSS1 nufeb/growth/cross1 sub 3.5e-5 metab2 4e-3 metab1 growth 0.009 yield 0.6 decay 2.6e-6 metab1_exp 20 epsyield 0.12 epsdens 30

fix growth_cross2 CROSS2 nufeb/growth/cross2 sub 3.5e-5 metab1 4e-3 metab2 growth 0.009 yield 0.6 decay 2.6e-6 metab2_exp 20 epsyield 0.12 epsdens 30

fix growth_cheater CHEATER nufeb/growth/cheater sub 3.5e-5 metab1 1e-3 metab2 1e-3 growth 0.009 yield 0.6 decay 2.6e-6 epsyield 0.12 epsdens 30

# heterotrophs division, division diameter: 1.36e-6
fix div1 CROSS1 nufeb/division/coccus 1.36e-6 152
fix div2 CROSS2 nufeb/division/coccus 1.36e-6 302
fix div3 CHEATER nufeb/division/coccus 1.36e-6 550

fix death1 CROSS1 nufeb/death/diameter dead 5.43e-7
fix death2 CROSS2 nufeb/death/diameter dead 5.43e-7
fix death3 CHEATER nufeb/death/diameter dead 5.43e-7

# EPS secretion from heterotrophs
fix eps1 CROSS1 nufeb/eps_secretion 5 EPS 1.1 30 896
fix eps2 CROSS2 nufeb/eps_secretion 5 EPS 1.1 30 1340
fix eps3 CROSS2 nufeb/eps_secretion 5 EPS 1.1 30 1882
#---------------------------Physical Processes--------------------------------#

pair_style  gran/hooke/history 1e-4 NULL 1e-5 NULL 0.0 0    # pairwise interaction
pair_coeff  * *                                             # between atoms

# pairwise interaction between z-wall and atoms
fix wall all wall/gran hooke/history 1e-3 NULL 1e-4 NULL 0 0 zplane 0.0 1e-04

fix vis all viscous 1e-5                                    # viscous damping force

fix grav all gravity 9.81 vector 0.0 0.0 -1.0

fix nve all nve/limit 1e-7                                  # NVE integration with
                                                            # maximum distance limit


#---------------------------Post-Physical Processes---------------------------#

fix coeff_sub all nufeb/diffusion_coeff sub ratio 0.8       # defining diffusion coeff in the biofilm
fix coeff_metab1 all nufeb/diffusion_coeff metab1 ratio 0.8    # region is 80% of the value in liquid
fix coeff_metab2 all nufeb/diffusion_coeff metab2 ratio 0.8

#---------------------------Chemical Processes---------------------------------#

fix diff_sub all nufeb/diffusion_reaction sub 1e-9        # diffusion reaction for updating
fix diff_metab1 all nufeb/diffusion_reaction metab1 4e-9     # distribusion of substrate concentration
fix diff_metab2 all nufeb/diffusion_reaction metab2 4e-9

#--------------------------Computations and Outputs----------------------------#

variable mass equal "mass(all)"                             # total mass
variable ncross1 equal "count(CROSS1)"                      # total # of CROSS1
variable ncross2 equal "count(CROSS2)"                      # total # of CROSS2
variable ncheater equal "count(CHEATER)"
variable ndead equal "count(dead)"
variable neps equal "count(EPS)"

shell mkdir vtk_CHEPS_ch                                            # dump vtk files to /vtk folder
dump du1 all vtk 10 vtk_CHEPS_ch/dump*.vtu id type diameter         # require build NUFEB with vtk option
dump du2 all grid/vtk 10 vtk_CHEPS_ch/dump_%_*.vti con rea den gro

#dump du3 all movie 10 movie.avi type diameter view 80 60    # dump video
#dump_modify du3 acolor 1 blue acolor 2 lightgrey framerate 10


                                                            # dump hdf5 files to /hdf5 folder
#shell mkdir hdf5                                           # require build NUFEB with hdf5 option
#dump du3 all nufeb/hdf5 10 dump.h5 id type x y z vx vy vz fx fy fz radius conc reac

thermo_style custom step cpu atoms v_ncross1 v_ncross2 v_ncheater v_ndead v_neps v_mass     # screen and log outputs
thermo 1
thermo_modify   lost ignore

#-----------------------------------Run----------------------------------------#

# issue run command, define timesteps for physical (pairdt) and chemical (diffdt) processes
run_style nufeb diffdt 1e-4 difftol 1e-6 pairdt 1e-2 pairtol 1 pairmax 1000 diffmax 5000

timestep 12000                                               # define biological timesteps (1000s)

run 300                                                    # growing biofilm for 900x1000s
Generated 0 of 6 mixed pair_coeff terms from geometric mixing rule
Last active /omp style is pair_style gran/hooke/history/omp
Neighbor list info ...
  update every 1 steps, delay 10 steps, check yes
  max neighbors/atom: 2000, page size: 100000
  master list distance cutoff = 2.49e-06
  ghost atom cutoff = 2.49e-06
  binsize = 1.245e-06, bins = 49 49 49
  1 neighbor lists, perpetual/occasional/extra = 1 0 0
  (1) pair gran/hooke/history/omp, perpetual
      attributes: half, newton off, size, history, omp
      pair build: half/size/bin/newtoff/omp
      stencil: full/bin/3d
      bin: standard
Per MPI rank memory allocation (min/avg/max) = 11.02 | 11.02 | 11.02 Mbytes
   Step          CPU          Atoms      v_ncross1      v_ncross2      v_ncheater      v_ndead         v_neps         v_mass    
         0   0                    150   50             50             50             0              0              1.3295396e-13
         1   0.38823385           492   90             85             83             0              234            1.6437405e-13
         2   0.76326954           901   119            125            123            0              534            1.8157617e-13
         3   1.0507153           1240   128            144            140            0              828            1.9590941e-13
         4   1.3368624           1564   139            151            149            0              1125           2.0909796e-13
         5   1.5165053           1906   144            159            158            0              1445           2.2185785e-13
         6   1.6556053           2234   147            169            166            0              1752           2.3422621e-13
         7   1.8268157           2586   156            174            171            0              2085           2.4650277e-13
         8   1.9512851           2946   165            184            174            0              2423           2.5848592e-13
         9   2.0711194           3318   170            199            181            0              2768           2.7024364e-13
        10   14.958744           3702   176            208            190            0              3128           2.8180728e-13
        11   15.083171           4090   183            214            198            0              3495           2.9320135e-13
        12   15.215558           4475   189            220            205            0              3861           3.0437353e-13
        13   15.325173           4871   196            226            211            0              4238           3.1534277e-13
        14   15.417202           5260   198            231            224            0              4607           3.260211e-13 
        15   15.52698            5661   206            238            228            0              4989           3.3660367e-13
        16   15.645036           6066   211            240            237            0              5378           3.4707518e-13
        17   15.780489           6481   221            244            246            0              5770           3.573008e-13 
        18   15.897796           6871   226            249            251            0              6145           3.6725999e-13
        19   15.988071           7295   231            256            261            0              6547           3.7715298e-13
        20   30.881942           7694   232            261            266            0              6935           3.8672458e-13
        21   30.967385           8097   235            267            271            0              7324           3.960764e-13 
        22   31.058993           8526   240            269            283            0              7734           4.0541194e-13
        23   31.153898           8933   249            274            291            0              8119           4.1442557e-13
        24   31.264307           9348   252            277            299            0              8520           4.234312e-13 
        25   31.34203            9759   260            279            308            0              8912           4.3215308e-13
        26   31.423908          10156   263            280            316            0              9297           4.4072901e-13
        27   31.510712          10572   267            284            321            0              9700           4.4935624e-13
        28   31.617214          10982   274            287            335            0              10086          4.577183e-13 
        29   31.736339          11389   276            291            341            0              10481          4.6605914e-13
        30   31.934203          11798   278            293            348            0              10879          4.7421035e-13
        31   32.046976          12218   282            296            355            0              11285          4.8229399e-13
        32   32.190719          12614   287            299            358            0              11670          4.9005615e-13
        33   32.32684           13048   290            302            369            0              12087          4.9790341e-13
        34   32.510149          13481   293            305            377            0              12506          5.0567754e-13
        35   32.725921          13882   296            309            384            0              12893          5.1310953e-13
        36   32.977426          14291   298            312            392            0              13289          5.2025619e-13
        37   33.474837          14714   299            316            395            0              13704          5.2741544e-13
        38   34.035846          15120   303            317            396            0              14104          5.3405727e-13
        39   34.315565          15512   307            319            403            0              14483          5.4016858e-13
        40   39.083989          15964   311            323            408            0              14922          5.4644481e-13
        41   39.858521          16355   311            324            418            0              15302          5.5227795e-13
        42   40.696351          16781   314            327            423            0              15717          5.5819673e-13
        43   41.547661          17191   317            329            430            0              16115          5.6383097e-13
        44   42.420102          17599   320            330            436            0              16513          5.6928032e-13
        45   43.296062          18012   322            331            438            0              16921          5.7457383e-13
        46   44.204926          18421   325            332            440            0              17324          5.7983742e-13
        47   45.101594          18826   327            334            442            0              17723          5.8495205e-13
        48   46.02315           19238   332            339            445            0              18122          5.9005037e-13
        49   46.96156           19680   337            342            447            0              18554          5.9506805e-13
        50   47.982672          20084   340            342            453            0              18949          5.9980382e-13
        51   49.003066          20526   343            348            461            0              19374          6.0478415e-13
        52   50.03287           20952   344            351            463            0              19794          6.0955083e-13
        53   51.069669          21385   347            353            465            0              20220          6.140248e-13 
        54   52.145951          21805   348            354            468            0              20635          6.1859345e-13
        55   53.227861          22260   349            357            473            0              21081          6.2297921e-13
        56   54.331724          22681   352            359            478            0              21492          6.2721182e-13
        57   55.449147          23125   356            359            481            0              21929          6.3149959e-13
        58   56.600446          23550   358            360            482            0              22350          6.3558547e-13
        59   57.78105           23993   360            361            484            0              22788          6.3967626e-13
        60   59.056769          24411   360            363            488            0              23200          6.4348573e-13
        61   60.291131          24860   363            365            488            0              23644          6.4733958e-13
        62   61.541817          25295   365            370            490            0              24070          6.5095074e-13
        63   62.825418          25744   373            373            494            0              24504          6.5455845e-13
        64   64.123226          26215   375            374            497            0              24969          6.5815314e-13
        65   65.433255          26637   378            374            497            0              25388          6.615114e-13 
        66   66.776614          27089   379            376            499            0              25835          6.6501439e-13
        67   68.154993          27541   381            379            502            0              26279          6.6846299e-13
        68   69.557485          27981   381            380            505            0              26715          6.7179396e-13
        69   71.008487          28443   381            380            506            0              27176          6.7526332e-13
        70   72.558682          28890   384            382            510            0              27614          6.7844566e-13
        71   74.105131          29333   387            382            510            0              28054          6.8179418e-13
        72   75.647681          29797   389            383            513            0              28512          6.8505768e-13
        73   77.21228           30236   391            384            514            0              28947          6.8826512e-13
        74   78.834439          30704   393            388            516            0              29407          6.914332e-13 
        75   80.472199          31133   393            388            518            0              29834          6.9448224e-13
        76   82.129033          31606   395            389            519            0              30303          6.9760378e-13
        77   83.847152          32046   396            391            522            0              30737          7.0050305e-13
        78   85.557256          32505   398            393            524            0              31190          7.0335968e-13
        79   87.335975          32957   399            394            527            0              31637          7.0627842e-13
        80   89.245925          33417   403            397            529            0              32088          7.0917453e-13
        81   91.088175          33860   404            399            532            0              32525          7.1205841e-13
        82   92.951166          34329   405            400            536            0              32988          7.1501066e-13
        83   94.865625          34770   405            401            540            0              33424          7.1777484e-13
        84   96.836066          35237   406            402            541            0              33888          7.2074339e-13
        85   98.830049          35692   408            405            544            0              34335          7.2366569e-13
        86   100.86036          36160   410            405            548            0              34797          7.2674838e-13
        87   102.94357          36617   411            406            552            0              35248          7.2983125e-13
        88   105.05856          37087   411            407            553            0              35716          7.3316594e-13
        89   107.23984          37515   411            407            556            0              36141          7.3624699e-13
        90   109.54743          37985   412            407            563            0              36603          7.3976728e-13
        91   111.86151          38426   413            407            568            0              37038          7.4315082e-13
        92   114.26131          38898   415            408            570            0              37505          7.4700926e-13
        93   116.67092          39344   417            409            576            0              37942          7.510273e-13 
        94   119.10357          39800   418            410            588            0              38384          7.5542391e-13
        95   121.57102          40269   420            410            595            0              38844          7.6019686e-13
        96   124.16374          40707   421            411            603            0              39272          7.6508887e-13
        97   126.81903          41187   421            412            616            0              39738          7.7062777e-13
        98   129.41716          41616   422            413            629            0              40152          7.7648016e-13
        99   132.07714          42095   422            414            641            0              40618          7.8286595e-13
       100   134.97325          42509   423            414            655            1              41016          7.8906734e-13
       101   137.8067           42971   424            415            670            1              41461          7.9589892e-13
       102   140.55674          43379   426            417            682            1              41853          8.0267882e-13
       103   143.47367          43826   427            420            700            1              42278          8.0974218e-13
       104   146.36923          44244   428            421            713            1              42681          8.1695902e-13
       105   149.32986          44676   429            423            732            1              43091          8.2448133e-13
       106   152.37077          45123   430            429            757            2              43505          8.3223083e-13
       107   155.40394          45538   432            430            779            2              43895          8.4006805e-13
       108   158.49037          45985   433            435            804            2              44311          8.4802858e-13
       109   161.61023          46389   437            436            818            2              44696          8.5575149e-13
       110   164.91872          46827   439            440            834            2              45112          8.6344564e-13
       111   168.20187          47227   443            442            856            3              45483          8.7078644e-13
       112   171.45545          47650   447            445            875            3              45880          8.779618e-13 
       113   174.7474           48067   450            448            895            4              46270          8.8519009e-13
       114   177.99889          48459   455            450            916            4              46634          8.9230868e-13
       115   181.3408           48909   462            454            927            5              47061          8.9954674e-13
       116   184.68818          49347   467            461            946            7              47466          9.0648912e-13
       117   188.20236          49784   469            464            958            8              47885          9.1349589e-13
       118   191.78946          50216   473            467            965            8              48303          9.1999945e-13
       119   195.38734          50664   475            473            973            9              48734          9.2592299e-13
       120   199.34413          51129   480            475            975            13             49186          9.3137679e-13
       121   203.07384          51583   481            478            982            13             49629          9.3646584e-13
       122   206.84147          52067   485            482            985            16             50099          9.4110341e-13
       123   210.74267          52535   486            484            994            16             50555          9.4528518e-13
       124   214.67739          53015   492            487            999            18             51019          9.4881012e-13
       125   218.52409          53495   494            493            996            24             51488          9.5191658e-13
       126   222.43166          53995   497            496            998            26             51978          9.5494865e-13
       127   226.50144          54493   503            496            1002           29             52463          9.5763449e-13
       128   230.58802          55017   505            498            1001           33             52980          9.6011301e-13
       129   234.72024          55538   505            499            1000           37             53497          9.6220849e-13
       130   239.00137          56091   506            503            996            42             54044          9.640561e-13 
       131   243.23555          56642   508            504            991            47             54592          9.6572647e-13
       132   247.46942          57200   510            505            988            51             55146          9.6723928e-13
       133   251.80427          57797   511            507            984            56             55739          9.6870449e-13
       134   256.20813          58354   513            510            979            62             56290          9.698851e-13 
       135   260.65178          58969   514            511            975            66             56903          9.7125206e-13
       136   265.15082          59541   514            511            975            67             57474          9.724265e-13 
       137   269.71348          60124   515            512            969            73             58055          9.7377289e-13
       138   274.36837          60722   517            513            966            77             58649          9.7516644e-13
       139   279.08989          61298   517            513            960            83             59225          9.7638666e-13
       140   284.02661          61888   518            516            959            84             59811          9.7764108e-13
       141   288.88766          62474   519            516            954            89             60396          9.7888819e-13
       142   293.80914          63056   519            516            954            90             60977          9.801086e-13 
       143   298.81065          63655   519            517            951            93             61575          9.8141785e-13
       144   303.89417          64229   521            517            948            96             62147          9.8261418e-13
       145   309.05756          64828   522            517            947            97             62745          9.8395414e-13
       146   314.30081          65413   523            517            944            100            63329          9.8528601e-13
       147   319.60513          65993   523            518            942            103            63907          9.8661406e-13
       148   325.00606          66586   523            520            939            106            64498          9.8799943e-13
       149   330.49208          67157   525            520            936            109            65067          9.892158e-13 
       150   336.21579          67743   525            521            935            110            65652          9.9063219e-13
       151   341.84944          68314   525            522            932            113            66222          9.9197431e-13
       152   347.55783          68894   525            525            928            117            66799          9.9328188e-13
       153   353.33606          69513   525            526            924            121            67417          9.9480349e-13
       154   359.18505          70038   526            527            918            127            67940          9.9599683e-13
       155   365.12549          70686   526            529            917            129            68585          9.976772e-13 
       156   371.14062          71233   526            530            916            131            69130          9.9891064e-13
       157   377.26587          71839   527            530            914            133            69735          1.000501e-12 
       158   383.4332           72432   527            533            914            133            70325          1.0019653e-12
       159   389.70625          73011   527            533            912            136            70903          1.0033937e-12
       160   396.22904          73589   527            533            910            138            71481          1.0048219e-12
       161   402.65561          74168   527            534            907            141            72059          1.0062877e-12
       162   409.16125          74762   527            536            903            145            72651          1.0078308e-12
       163   415.75487          75343   529            536            898            150            73230          1.0092884e-12
       164   422.43099          75944   531            536            897            151            73829          1.0108538e-12
       165   429.18413          76520   532            536            894            154            74404          1.0122647e-12
       166   436.0253           77099   532            537            889            159            74982          1.0137545e-12
       167   442.95517          77692   534            538            885            163            75572          1.0152937e-12
       168   449.94365          78275   534            538            884            164            76155          1.0167954e-12
       169   457.00742          78863   535            540            882            166            76740          1.0183172e-12
       170   464.33839          79461   535            543            879            170            77334          1.0198833e-12
       171   471.55771          80041   536            543            875            174            77913          1.0214344e-12
       172   478.87419          80635   536            543            873            176            78507          1.023109e-12 
       173   486.30297          81212   537            543            871            179            79082          1.0246388e-12
       174   493.79786          81804   537            545            868            182            79672          1.0262949e-12
       175   501.35947          82400   537            546            866            184            80267          1.0279757e-12
       176   509.03731          82984   538            547            861            189            80849          1.0296738e-12
       177   516.78781          83577   538            549            860            190            81440          1.0313391e-12
       178   524.60658          84169   538            550            858            192            82031          1.0330753e-12
       179   532.50711          84760   539            551            857            193            82620          1.0347671e-12
       180   540.68371          85339   541            551            857            193            83197          1.0365157e-12
       181   548.72079          85935   544            551            853            197            83790          1.0382771e-12
       182   556.84668          86528   544            552            852            199            84381          1.0400308e-12
       183   565.07203          87131   544            553            849            202            84983          1.0418336e-12
       184   573.36946          87713   545            553            844            207            85564          1.0435388e-12
       185   581.74221          88325   545            553            841            210            86176          1.0454372e-12
       186   590.2064           88912   547            553            839            212            86761          1.0472071e-12
       187   598.74233          89515   547            553            838            213            87364          1.0490594e-12
       188   607.36035          90095   548            553            839            213            87942          1.0508407e-12
       189   616.05597          90707   548            553            835            217            88554          1.0527736e-12
       190   625.03706          91284   549            554            832            220            89129          1.0545283e-12
       191   633.92508          91899   549            554            829            223            89744          1.0564169e-12
       192   642.91181          92485   549            554            828            224            90330          1.0582456e-12
       193   651.96238          93088   549            555            825            227            90932          1.0600972e-12
       194   661.1188           93679   550            556            821            231            91521          1.0620122e-12
       195   670.35044          94278   552            556            815            237            92118          1.0639113e-12
       196   679.67346          94876   552            558            814            238            92714          1.0658882e-12
       197   689.08754          95454   552            558            810            242            93292          1.0677933e-12
       198   698.59572          96069   553            559            806            246            93905          1.0698574e-12
       199   708.18851          96649   553            559            802            250            94485          1.0717456e-12
       200   718.06153          97258   553            559            800            252            95094          1.0738289e-12
       201   727.8298           97855   553            559            794            258            95691          1.0757305e-12
       202   737.68421          98460   553            560            794            259            96294          1.0777704e-12
       203   747.59067          99060   553            561            789            264            96893          1.0797534e-12
       204   757.57984          99651   553            561            788            265            97484          1.0817307e-12
       205   767.64507         100269   553            561            785            268            98102          1.0838092e-12
       206   777.79913         100843   554            561            783            272            98673          1.0856759e-12
       207   788.02914         101471   555            562            780            275            99299          1.0878175e-12
       208   798.3768          102051   556            562            781            275            99877          1.0896873e-12
       209   808.82105         102669   556            562            782            276            100493         1.0917689e-12
       210   819.60184         103267   557            562            781            277            101090         1.0937795e-12
       211   830.20521         103870   558            563            778            280            101691         1.0957681e-12
       212   840.96108         104471   558            563            776            282            102292         1.0978154e-12
       213   851.75866         105080   559            563            774            284            102900         1.0998615e-12
       214   862.67386         105667   559            563            772            286            103487         1.1018784e-12
       215   873.64285         106298   561            564            770            288            104115         1.1040139e-12
       216   884.67894         106879   562            567            769            289            104692         1.1059636e-12
       217   895.86667         107512   562            567            766            292            105325         1.1081764e-12
       218   907.12497         108094   563            568            766            293            105904         1.1101224e-12
       219   918.45763         108712   563            570            759            301            106519         1.1122521e-12
       220   930.15799         109320   563            570            757            304            107126         1.114344e-12 
       221   941.68187         109949   564            571            757            305            107752         1.1165092e-12
       222   953.30614         110531   566            571            753            309            108332         1.1185122e-12
       223   964.98604         111169   566            572            750            312            108969         1.1206989e-12
       224   976.76228         111769   566            572            748            315            109568         1.1228143e-12
       225   988.66884         112399   566            573            746            317            110197         1.1249666e-12
       226   1000.615          113009   566            573            746            317            110807         1.127085e-12 
       227   1012.6467         113608   566            573            746            318            111405         1.1291704e-12
       228   1024.7514         114229   566            574            743            322            112024         1.1314024e-12
       229   1036.9845         114839   566            575            743            323            112632         1.1335483e-12
       230   1049.5734         115478   566            575            740            327            113270         1.1360678e-12
       231   1062.1032         116070   566            576            736            333            113859         1.1384908e-12
       232   1074.7096         116694   568            576            735            334            114481         1.1413594e-12
       233   1087.4672         117301   569            576            736            336            115084         1.1442622e-12
       234   1100.3759         117917   571            577            738            339            115692         1.1473116e-12
       235   1113.3045         118498   571            579            738            342            116268         1.1505987e-12
       236   1126.3837         119095   574            580            738            347            116856         1.1540642e-12
       237   1139.5222         119680   575            581            740            353            117431         1.1577434e-12
       238   1152.7584         120250   577            583            736            364            117990         1.1615082e-12
       239   1166.1054         120856   580            587            732            376            118581         1.1657961e-12
       240   1179.7935         121436   581            590            734            381            119150         1.170433e-12 
       241   1193.2921         122021   583            592            735            390            119721         1.1750785e-12
       242   1206.9431         122595   585            594            735            398            120283         1.1797991e-12
       243   1220.7634         123186   586            596            742            405            120857         1.1850382e-12
       244   1234.5616         123748   591            601            743            412            121401         1.1905711e-12
       245   1248.593          124344   593            606            743            420            121982         1.1964901e-12
       246   1262.6936         124911   596            607            754            428            122526         1.2024803e-12
       247   1276.84           125509   599            611            759            437            123103         1.2083841e-12
       248   1291.1036         126073   601            612            761            451            123648         1.2141774e-12
       249   1305.4388         126655   605            618            764            459            124209         1.2201898e-12
       250   1320.1583         127241   605            624            765            466            124781         1.226302e-12 
       251   1334.6943         127758   609            625            765            474            125285         1.2319975e-12
       252   1349.4196         128359   613            628            769            479            125870         1.2379517e-12
       253   1364.1892         128911   614            633            770            486            126408         1.2433729e-12
       254   1379.04           129483   616            640            777            490            126960         1.2482205e-12
       255   1393.9698         130073   619            640            775            499            127540         1.2528216e-12
       256   1409.0148         130672   624            643            770            508            128127         1.2571288e-12
       257   1424.2035         131250   628            644            765            518            128695         1.2609945e-12
       258   1439.3682         131868   631            649            760            528            129300         1.2645616e-12
       259   1454.6512         132496   632            651            755            537            129921         1.267909e-12 
       260   1470.3077         133143   634            653            746            547            130563         1.271206e-12 
       261   1485.7167         133800   635            656            738            556            131215         1.2742204e-12
       262   1501.2376         134503   642            657            735            563            131906         1.2772186e-12
       263   1516.8977         135169   642            658            727            573            132569         1.2800124e-12
       264   1532.6569         135903   643            659            723            579            133299         1.2829628e-12
       265   1548.5382         136591   640            659            718            588            133986         1.2857032e-12
       266   1564.5207         137310   641            661            710            596            134702         1.2885074e-12
       267   1580.6506         138034   641            660            707            601            135425         1.2912319e-12
       268   1596.9044         138766   640            660            702            607            136157         1.2940216e-12
       269   1613.2636         139477   639            659            699            613            136867         1.2967337e-12
       270   1630.0537         140230   639            659            697            615            137620         1.2996268e-12
       271   1646.6899         140919   638            660            690            623            138308         1.3022145e-12
       272   1663.591          141693   638            660            685            629            139081         1.3052043e-12
       273   1680.4531         142394   638            660            684            631            139781         1.3079269e-12
       274   1697.5516         143148   639            660            679            638            140532         1.3108169e-12
       275   1714.6366         143861   639            660            676            641            141245         1.3135024e-12
       276   1731.8968         144606   639            660            670            647            141990         1.3163897e-12
       277   1749.2485         145305   640            661            667            650            142687         1.3190943e-12
       278   1766.7424         146054   641            662            664            654            143433         1.3219467e-12
       279   1784.3228         146767   641            662            661            657            144146         1.3247129e-12
       280   1802.4016         147501   640            663            661            659            144878         1.3274937e-12
       281   1820.1709         148228   640            663            655            665            145605         1.3302839e-12
       282   1838.0633         148952   639            664            650            671            146328         1.3330433e-12
       283   1856.0528         149679   639            664            650            671            147055         1.3358105e-12
       284   1874.1767         150391   639            664            649            673            147766         1.3385263e-12
       285   1892.4331         151130   639            664            645            678            148504         1.3413783e-12
       286   1910.8304         151832   638            664            642            682            149206         1.3440842e-12
       287   1929.3152         152563   640            664            639            685            149935         1.3468692e-12
       288   1947.9491         153271   641            664            635            690            150641         1.3496112e-12
       289   1966.6604         153995   641            664            631            694            151365         1.3524001e-12
       290   1985.8308         154715   641            664            628            697            152085         1.3551772e-12
       291   2004.9172         155434   640            664            626            700            152804         1.3579716e-12
       292   2024.1034         156130   640            662            624            705            153499         1.360688e-12 
       293   2043.3253         156862   642            663            622            707            154228         1.363519e-12 
       294   2062.7045         157567   642            664            619            712            154930         1.3662557e-12
       295   2082.184          158287   642            664            618            713            155650         1.369068e-12 
       296   2101.7875         158996   644            664            616            716            156356         1.3717532e-12
       297   2121.4904         159718   644            665            615            718            157076         1.3745754e-12
       298   2141.3201         160430   644            665            611            723            157787         1.3773005e-12
       299   2161.3275         161147   644            665            608            726            158504         1.3801038e-12
       300   2181.8346         161857   645            666            608            726            159212         1.3827721e-12
Loop time of 2181.83 on 16 procs for 300 steps with 161857 atoms

97.0% CPU use with 16 MPI tasks x 1 OpenMP threads

MPI task timing breakdown:
Section |  min time  |  avg time  |  max time  |%varavg| %total
---------------------------------------------------------------
Pair    | 634.59     | 707.97     | 756.53     | 131.7 | 32.45
Neigh   | 662.15     | 733.44     | 787.18     | 129.3 | 33.62
Comm    | 193.89     | 198.72     | 203.24     |  19.6 |  9.11
Output  | 37.086     | 37.086     | 37.087     |   0.0 |  1.70
Modify  | 403.13     | 497.74     | 640.41     | 303.8 | 22.81
Other   |            | 6.875      |            |       |  0.32

Nlocal:        10116.1 ave       10383 max        9676 min
Histogram: 1 0 3 1 0 1 1 4 2 3
Nghost:        7861.81 ave        8088 max        7645 min
Histogram: 2 2 1 1 3 3 0 0 2 2
Neighs:         123699 ave      130344 max      114498 min
Histogram: 1 0 2 2 1 1 2 4 1 2

Total # of neighbors = 1979184
Ave neighs/atom = 12.227979
Neighbor list builds = 26358
Dangerous builds = 26058

Total wall time: 0:36:53
