LAMMPS (23 Jun 2022 - Update 4)
  using 1 OpenMP thread(s) per MPI task
package omp 0
using multi-threaded neighbor list subroutines
#-----------------------------------------------------------------------------#
#                NUFEB Simulation: Heterotrophic Biofilm Growth               #
#-----------------------------------------------------------------------------#


#-----------------------------System Settings---------------------------------#

units si                                    # using si units (m, s, kg)
atom_style      coccus                      # using nufeb coccus atom style
atom_modify     map array sort 10 0         # map array - find atoms using indices
		                            # sort every 10

boundary        pp pp ff                    # periodic boundaries in x and y
                                            # fixed boundary in z

newton          off                         # forces between local and ghost
                                            # atoms are computed in each
					     # processor without communication

processors      * * 1                       # processor grid

comm_modify     vel yes                     # communicate velocities for ghost atoms

read_data       atom_ch.in	             # read atom.in file which defines domain size
Reading data file ...
  orthogonal box = (0 0 0) to (6e-05 6e-05 6e-05)
  4 by 4 by 1 MPI processor grid
  reading atoms ...
  150 atoms
  read_data CPU = 0.013 seconds
                                            # and initial atoms


#--------------------Microbes and Functional Groups-------------------------#

group           CROSS1   type 1               # assign type 1,2 atoms to CROSS group
50 atoms in group CROSS1
group           CROSS2   type 2
50 atoms in group CROSS2
group		CHEATER  type 3
50 atoms in group CHEATER
group           dead     type 4
0 atoms in group dead
group		EPS	 type 5
0 atoms in group EPS

neighbor        5e-7 bin                   # setting neighbour skin distance and style

neigh_modify    check yes                  # rebuild neighbour list if any atom
                                           # had moved more than half the skin distance


#--------------------------Mesh Grid and Substrates--------------------------#

# defining grid sytle, substrate names, and grid size
grid_style      nufeb/chemostat 3 sub metab1 metab2 5e-6

# set diffusion boundary conditions and initial concentrations (liquid:kg/m3)
grid_modify     set sub      pp pp nd  1.8e-4
No /omp style for force computation currently active
grid_modify     set metab1   pp pp nd  1e-4
No /omp style for force computation currently active
grid_modify     set metab2   pp pp nd  1e-4
No /omp style for force computation currently active


#--------------------------Biological Processes-------------------------------#

# heterotrophs growth
fix growth_cross1 CROSS1 nufeb/growth/cross1 sub 3.5e-5 metab2 4e-3 metab1 growth 0.009 yield 0.6 decay 2.6e-6 metab1_exp 20 epsyield 0.12 epsdens 30

fix growth_cross2 CROSS2 nufeb/growth/cross2 sub 3.5e-5 metab1 4e-3 metab2 growth 0.009 yield 0.6 decay 2.6e-6 metab2_exp 20 epsyield 0.12 epsdens 30

fix growth_cheater CHEATER nufeb/growth/cheater sub 3.5e-5 metab1 1e-3 metab2 1e-3 growth 0.009 yield 0.6 decay 2.6e-6 epsyield 0.12 epsdens 30

# heterotrophs division, division diameter: 1.36e-6
fix div1 CROSS1 nufeb/division/coccus 1.36e-6 544
fix div2 CROSS2 nufeb/division/coccus 1.36e-6 1870
fix div3 CHEATER nufeb/division/coccus 1.36e-6 4078

fix death1 CROSS1 nufeb/death/diameter dead 5.43e-7
fix death2 CROSS2 nufeb/death/diameter dead 5.43e-7
fix death3 CHEATER nufeb/death/diameter dead 5.43e-7

# EPS secretion from heterotrophs
fix eps1 CROSS1 nufeb/eps_secretion 5 EPS 1.1 30 7168
fix eps2 CROSS2 nufeb/eps_secretion 5 EPS 1.1 30 11140
fix eps3 CROSS2 nufeb/eps_secretion 5 EPS 1.1 30 15994
#---------------------------Physical Processes--------------------------------#

pair_style  gran/hooke/history 1e-4 NULL 1e-5 NULL 0.0 0    # pairwise interaction
pair_coeff  * *                                             # between atoms

# pairwise interaction between z-wall and atoms
fix wall all wall/gran hooke/history 1e-3 NULL 1e-4 NULL 0 0 zplane 0.0 1e-04

fix vis all viscous 1e-5                                    # viscous damping force

fix grav all gravity 9.81 vector 0.0 0.0 -1.0

fix nve all nve/limit 1e-7                                  # NVE integration with
                                                            # maximum distance limit


#---------------------------Post-Physical Processes---------------------------#

fix coeff_sub all nufeb/diffusion_coeff sub ratio 0.8       # defining diffusion coeff in the biofilm
fix coeff_metab1 all nufeb/diffusion_coeff metab1 ratio 0.8    # region is 80% of the value in liquid
fix coeff_metab2 all nufeb/diffusion_coeff metab2 ratio 0.8

#---------------------------Chemical Processes---------------------------------#

fix diff_sub all nufeb/diffusion_reaction sub 1e-9        # diffusion reaction for updating
fix diff_metab1 all nufeb/diffusion_reaction metab1 4e-9     # distribusion of substrate concentration
fix diff_metab2 all nufeb/diffusion_reaction metab2 4e-9

#--------------------------Computations and Outputs----------------------------#

variable mass equal "mass(all)"                             # total mass
variable ncross1 equal "count(CROSS1)"                      # total # of CROSS1
variable ncross2 equal "count(CROSS2)"                      # total # of CROSS2
variable ncheater equal "count(CHEATER)"
variable ndead equal "count(dead)"
variable neps equal "count(EPS)"

shell mkdir vtk_CHEPS_ch                                            # dump vtk files to /vtk folder
dump du1 all vtk 10 vtk_CHEPS_ch/dump*.vtu id type diameter         # require build NUFEB with vtk option
dump du2 all grid/vtk 10 vtk_CHEPS_ch/dump_%_*.vti con rea den gro

#dump du3 all movie 10 movie.avi type diameter view 80 60    # dump video
#dump_modify du3 acolor 1 blue acolor 2 lightgrey framerate 10


                                                            # dump hdf5 files to /hdf5 folder
#shell mkdir hdf5                                           # require build NUFEB with hdf5 option
#dump du3 all nufeb/hdf5 10 dump.h5 id type x y z vx vy vz fx fy fz radius conc reac

thermo_style custom step cpu atoms v_ncross1 v_ncross2 v_ncheater v_ndead v_neps v_mass     # screen and log outputs
thermo 1
thermo_modify   lost ignore

#-----------------------------------Run----------------------------------------#

# issue run command, define timesteps for physical (pairdt) and chemical (diffdt) processes
run_style nufeb diffdt 1e-4 difftol 1e-6 pairdt 1e-2 pairtol 1 pairmax 1000 diffmax 5000

timestep 12000                                               # define biological timesteps (1000s)

run 300                                                    # growing biofilm for 900x1000s
Generated 0 of 6 mixed pair_coeff terms from geometric mixing rule
Last active /omp style is pair_style gran/hooke/history/omp
Neighbor list info ...
  update every 1 steps, delay 10 steps, check yes
  max neighbors/atom: 2000, page size: 100000
  master list distance cutoff = 2.49e-06
  ghost atom cutoff = 2.49e-06
  binsize = 1.245e-06, bins = 49 49 49
  1 neighbor lists, perpetual/occasional/extra = 1 0 0
  (1) pair gran/hooke/history/omp, perpetual
      attributes: half, newton off, size, history, omp
      pair build: half/size/bin/newtoff/omp
      stencil: full/bin/3d
      bin: standard
Per MPI rank memory allocation (min/avg/max) = 11.02 | 11.02 | 11.02 Mbytes
   Step          CPU          Atoms      v_ncross1      v_ncross2      v_ncheater      v_ndead         v_neps         v_mass    
         0   0                    150   50             50             50             0              0              1.3295396e-13
         1   0.39366928           490   90             85             83             0              232            1.6434423e-13
         2   0.77530715           911   120            126            124            0              541            1.8160698e-13
         3   1.0870063           1254   129            145            137            0              843            1.9571268e-13
         4   1.3752917           1589   136            154            149            0              1150           2.0895323e-13
         5   1.5463222           1920   143            161            154            0              1462           2.2167647e-13
         6   1.6937233           2262   147            176            161            0              1778           2.3398332e-13
         7   1.8461625           2610   155            179            168            0              2108           2.4618244e-13
         8   1.9869766           2967   166            187            171            0              2443           2.5795168e-13
         9   2.1402641           3328   170            194            177            0              2787           2.6945452e-13
        10   2.2791958           3708   177            209            183            0              3139           2.8066574e-13
        11   2.3695506           4102   182            213            195            0              3512           2.9184382e-13
        12   2.4786316           4480   186            220            203            0              3871           3.0268545e-13
        13   2.5718288           4870   194            225            205            0              4246           3.1341991e-13
        14   2.6910183           5250   195            229            211            0              4615           3.239139e-13 
        15   2.7900675           5645   199            236            219            0              4991           3.3418331e-13
        16   2.9380392           6042   206            242            223            0              5371           3.4431371e-13
        17   3.0473814           6443   211            249            232            0              5751           3.5419846e-13
        18   3.1302246           6857   219            255            240            0              6143           3.6381904e-13
        19   3.2392374           7274   224            259            246            0              6545           3.7340584e-13
        20   3.3921363           7665   229            263            257            0              6916           3.8264169e-13
        21   3.4930702           8073   233            267            265            0              7308           3.9171639e-13
        22   3.5748901           8489   238            273            270            0              7708           4.0061493e-13
        23   3.6907169           8903   244            279            276            0              8104           4.093316e-13 
        24   3.7748979           9319   251            283            285            0              8500           4.177491e-13 
        25   3.9040741           9723   255            284            291            0              8893           4.2614622e-13
        26   4.0096955          10142   258            291            299            0              9294           4.3426268e-13
        27   4.0868456          10547   263            296            305            0              9683           4.4217742e-13
        28   4.2257209          10949   266            300            312            0              10071          4.5000315e-13
        29   4.344279           11366   270            303            318            0              10475          4.5771579e-13
        30   4.5040079          11782   272            307            324            0              10879          4.6522339e-13
        31   4.6364491          12184   274            311            329            0              11270          4.7253415e-13
        32   4.7915729          12597   277            316            332            0              11672          4.7968866e-13
        33   4.9150412          13016   283            317            338            0              12078          4.8685687e-13
        34   5.1015159          13446   290            321            344            0              12491          4.9400362e-13
        35   5.3358543          13865   299            323            346            0              12897          5.0084942e-13
        36   5.6120606          14281   302            324            351            0              13304          5.0745695e-13
        37   5.9262485          14706   306            327            358            0              13715          5.139413e-13 
        38   6.3519943          15121   311            330            363            0              14117          5.2017308e-13
        39   6.8980652          15545   314            331            368            0              14532          5.2631222e-13
        40   7.8049705          15960   315            334            374            0              14937          5.3233022e-13
        41   8.6457417          16387   318            340            377            0              15352          5.3806647e-13
        42   9.4949441          16819   325            342            379            0              15773          5.4363189e-13
        43   10.36486           17226   326            344            383            0              16173          5.4894219e-13
        44   11.288575          17662   329            346            384            0              16603          5.5423368e-13
        45   12.18955           18086   331            349            387            0              17019          5.59319e-13  
        46   13.127267          18522   334            352            388            0              17448          5.6421664e-13
        47   14.082236          18956   336            356            391            0              17873          5.6919007e-13
        48   15.046904          19397   339            357            397            0              18304          5.7396641e-13
        49   16.014306          19818   341            358            399            0              18720          5.7851427e-13
        50   60.398015          20264   343            361            404            0              19156          5.8308744e-13
        51   61.444136          20688   346            363            406            0              19573          5.8753198e-13
        52   62.496188          21123   349            364            406            0              20004          5.9181784e-13
        53   63.584268          21563   350            368            411            0              20434          5.9607538e-13
        54   64.688407          21993   350            371            413            0              20859          6.0038195e-13
        55   65.794494          22439   353            371            415            0              21300          6.0469931e-13
        56   66.936319          22862   356            374            415            0              21717          6.0885289e-13
        57   68.102109          23322   359            377            418            0              22168          6.1297932e-13
        58   69.291383          23759   361            378            421            0              22599          6.1701654e-13
        59   70.534907          24208   362            382            424            0              23040          6.2103072e-13
        60   80.370561          24657   363            385            427            0              23482          6.2496569e-13
        61   81.634351          25080   364            386            430            0              23900          6.2869066e-13
        62   82.934863          25548   366            387            432            0              24363          6.3259946e-13
        63   84.257255          25991   367            392            434            0              24798          6.3628029e-13
        64   85.601232          26458   370            393            435            0              25260          6.3991609e-13
        65   86.997317          26898   372            394            439            0              25693          6.4339693e-13
        66   88.410125          27375   374            395            439            0              26167          6.4694141e-13
        67   89.868655          27808   376            398            442            0              26592          6.5009396e-13
        68   91.332258          28286   377            402            446            0              27061          6.5339574e-13
        69   92.826306          28722   378            404            448            0              27492          6.5646974e-13
        70   106.24578          29217   384            405            452            0              27976          6.5976436e-13
        71   107.81888          29644   386            406            455            0              28397          6.6270812e-13
        72   109.44134          30137   387            406            457            0              28887          6.6593391e-13
        73   111.06999          30564   387            409            458            0              29310          6.6873541e-13
        74   112.73937          31060   389            409            460            0              29802          6.7182475e-13
        75   114.43478          31501   391            412            461            0              30237          6.7467575e-13
        76   116.17437          31989   393            414            462            0              30720          6.7764941e-13
        77   117.96189          32441   395            415            463            0              31168          6.8049888e-13
        78   119.77134          32935   396            417            465            0              31657          6.8337688e-13
        79   121.6169           33373   397            417            468            0              32091          6.8595035e-13
        80   123.60285          33860   399            418            468            0              32575          6.8879723e-13
        81   125.54986          34303   400            421            468            0              33014          6.9144302e-13
        82   127.53003          34804   401            421            470            0              33512          6.9449487e-13
        83   129.59981          35258   402            422            472            0              33962          6.9729024e-13
        84   131.6416           35750   404            425            474            0              34447          7.0018522e-13
        85   133.74025          36226   407            430            475            0              34914          7.0296713e-13
        86   135.91199          36709   408            432            480            0              35389          7.0583344e-13
        87   138.10007          37171   408            433            482            0              35848          7.0875815e-13
        88   140.3738           37664   408            434            485            0              36337          7.1171957e-13
        89   142.75955          38135   410            436            488            0              36801          7.1481788e-13
        90   145.31047          38610   410            436            495            0              37269          7.1820063e-13
        91   147.76825          39074   410            438            499            0              37727          7.2194596e-13
        92   150.3132           39537   410            439            507            0              38181          7.2584044e-13
        93   152.88724          40024   411            441            516            0              38656          7.301814e-13 
        94   155.50802          40466   411            442            518            0              39095          7.3432503e-13
        95   158.17977          40951   412            442            525            0              39572          7.389789e-13 
        96   160.89982          41387   413            443            532            0              39999          7.4350848e-13
        97   163.65527          41862   413            443            542            0              40464          7.484877e-13 
        98   166.43563          42311   416            445            555            0              40895          7.5340426e-13
        99   169.35264          42774   418            445            562            0              41349          7.5864231e-13
       100   172.51531          43214   419            447            574            0              41774          7.6405638e-13
       101   175.46212          43688   425            448            583            0              42232          7.6970158e-13
       102   178.55412          44126   426            448            598            0              42654          7.7550754e-13
       103   181.70655          44570   428            449            610            0              43083          7.8151333e-13
       104   184.90125          45009   432            452            622            0              43503          7.8754832e-13
       105   188.11108          45451   434            454            634            0              43929          7.9406943e-13
       106   191.38756          45873   440            454            651            0              44328          8.0055197e-13
       107   194.70605          46328   445            456            664            0              44763          8.0729361e-13
       108   198.02971          46747   447            461            682            0              45157          8.1361685e-13
       109   201.41743          47203   449            463            696            0              45595          8.199574e-13 
       110   205.00708          47628   453            465            707            1              46002          8.2617373e-13
       111   208.52039          48091   461            467            718            1              46444          8.3243962e-13
       112   212.11238          48541   462            473            731            1              46874          8.3874613e-13
       113   215.71878          48976   463            475            741            3              47294          8.4494843e-13
       114   219.38036          49432   470            478            753            4              47727          8.5094757e-13
       115   223.18072          49913   473            482            761            6              48191          8.5646472e-13
       116   227.08004          50381   478            485            764            7              48647          8.6186377e-13
       117   231.03937          50852   482            488            769            9              49104          8.6678407e-13
       118   235.01637          51317   488            492            783            10             49544          8.7110865e-13
       119   239.0132           51797   491            496            783            13             50014          8.7530339e-13
       120   243.23397          52282   493            501            788            14             50486          8.7927744e-13
       121   247.41911          52768   496            504            794            15             50959          8.8304236e-13
       122   251.7512           53302   498            510            794            17             51483          8.8643283e-13
       123   256.05798          53822   502            512            793            21             51994          8.8927187e-13
       124   260.42468          54354   503            514            789            27             52521          8.9189098e-13
       125   264.82459          54878   503            516            786            31             53042          8.9432573e-13
       126   269.35799          55421   505            518            786            33             53579          8.9659662e-13
       127   273.90228          55981   505            518            777            43             54138          8.9883615e-13
       128   278.54785          56536   507            521            777            44             54687          9.0076652e-13
       129   283.2508           57135   510            522            774            47             55282          9.0276265e-13
       130   288.52098          57702   511            522            772            50             55847          9.0446189e-13
       131   293.4102           58309   511            524            769            54             56451          9.0626004e-13
       132   298.40775          58907   511            525            765            58             57048          9.080415e-13 
       133   303.49949          59501   511            526            762            62             57640          9.0979969e-13
       134   308.68261          60102   512            526            760            64             58240          9.1158634e-13
       135   313.95423          60658   512            527            755            69             58795          9.1319127e-13
       136   319.34727          61287   515            528            752            72             59420          9.1513683e-13
       137   324.86456          61831   515            529            749            75             59963          9.1672207e-13
       138   330.45884          62440   516            529            746            78             60571          9.1861399e-13
       139   336.17781          63018   516            532            744            80             61146          9.2036221e-13
       140   342.25008          63625   516            533            743            81             61752          9.2217998e-13
       141   348.17651          64215   516            534            739            86             62340          9.2395789e-13
       142   354.29425          64808   516            535            733            92             62932          9.2574596e-13
       143   360.4705           65383   518            535            730            95             63505          9.2751068e-13
       144   366.7489           65984   518            536            727            98             64105          9.2938101e-13
       145   373.12875          66575   518            537            726            100            64694          9.3119938e-13
       146   379.63954          67163   519            538            723            103            65280          9.3305141e-13
       147   386.1934           67741   520            540            722            104            65855          9.3480038e-13
       148   392.82435          68336   520            541            715            111            66449          9.3670647e-13
       149   399.54552          68924   522            541            713            113            67035          9.3858293e-13
       150   406.54131          69503   522            541            709            117            67614          9.4045878e-13
       151   413.45276          70090   522            542            705            121            68200          9.4232098e-13
       152   420.46799          70678   525            543            702            124            68784          9.4424007e-13
       153   427.57171          71269   526            543            699            127            69374          9.4617745e-13
       154   434.81948          71844   528            544            699            127            69946          9.4802908e-13
       155   442.16004          72458   528            544            697            129            70560          9.5006474e-13
       156   449.59206          73059   528            545            695            131            71160          9.5205151e-13
       157   457.09789          73616   528            545            693            134            71716          9.5387082e-13
       158   464.72687          74231   528            545            688            139            72331          9.5597087e-13
       159   472.44556          74792   528            546            688            141            72889          9.5785018e-13
       160   480.46931          75407   528            548            686            143            73502          9.5993788e-13
       161   488.39272          75963   530            548            685            144            74056          9.6178079e-13
       162   496.40786          76575   531            548            681            148            74667          9.6390124e-13
       163   504.52675          77136   531            552            677            152            75224          9.6580327e-13
       164   512.74642          77749   531            552            674            155            75837          9.6800127e-13
       165   521.07054          78329   531            552            672            157            76417          9.6996732e-13
       166   529.51618          78915   531            552            672            157            77003          9.7203575e-13
       167   538.04967          79502   531            554            671            158            77588          9.7406703e-13
       168   546.67447          80098   531            554            671            158            78184          9.7617981e-13
       169   555.42345          80679   532            554            670            159            78764          9.7816743e-13
       170   564.46871          81278   532            554            666            163            79363          9.8032899e-13
       171   573.41375          81864   532            555            663            166            79948          9.8238312e-13
       172   582.46578          82447   533            555            662            168            80529          9.8449245e-13
       173   591.62826          83047   533            555            660            170            81129          9.8660553e-13
       174   600.86817          83608   533            555            657            173            81690          9.8864272e-13
       175   610.20797          84207   533            555            656            174            82289          9.9082031e-13
       176   619.64163          84808   534            556            655            176            82887          9.9296516e-13
       177   629.19613          85384   534            557            654            177            83462          9.9505573e-13
       178   638.86219          85987   536            558            652            179            84062          9.972468e-13 
       179   648.64158          86555   536            561            650            181            84627          9.9930602e-13
       180   658.72358          87164   536            563            647            185            85233          1.0015338e-12
       181   668.70352          87760   538            563            641            191            85827          1.0036754e-12
       182   678.81726          88359   538            563            639            193            86426          1.0058753e-12
       183   689.02596          88939   539            563            638            194            87005          1.0080073e-12
       184   699.36375          89545   539            564            637            195            87610          1.0102372e-12
       185   709.80645          90124   540            564            635            197            88188          1.0123883e-12
       186   720.35607          90721   541            564            634            198            88784          1.0146102e-12
       187   731.00675          91327   541            566            631            201            89388          1.0168399e-12
       188   741.75645          91916   541            567            631            201            89976          1.0189769e-12
       189   752.64078          92512   541            568            629            203            90571          1.0212214e-12
       190   763.87006          93098   541            570            626            206            91155          1.0234185e-12
       191   774.99877          93713   543            570            623            209            91768          1.0257292e-12
       192   786.24516          94295   543            571            621            211            92349          1.027886e-12 
       193   797.62386          94914   544            572            616            216            92966          1.030166e-12 
       194   809.0806           95509   544            575            607            225            93558          1.0323608e-12
       195   820.60978          96109   544            575            605            227            94158          1.0345847e-12
       196   832.27057          96736   544            575            603            230            94784          1.0369367e-12
       197   844.03986          97320   545            575            601            232            95367          1.0391267e-12
       198   855.91543          97930   545            575            601            232            95977          1.0414188e-12
       199   867.91538          98504   545            575            600            233            96551          1.0435988e-12
       200   880.23195          99134   545            576            595            238            97180          1.0460393e-12
       201   892.41514          99691   545            576            592            241            97737          1.0481168e-12
       202   904.74543         100330   548            576            588            245            98373          1.0506272e-12
       203   917.14485         100898   548            578            586            247            98939          1.0528049e-12
       204   929.65676         101522   549            578            582            251            99562          1.055203e-12 
       205   942.30931         102112   549            580            582            251            100150         1.0574708e-12
       206   955.07121         102742   549            582            581            252            100778         1.0599076e-12
       207   967.96938         103334   549            583            578            255            101369         1.0621573e-12
       208   980.94539         103950   549            584            576            259            101982         1.0645345e-12
       209   994.06148         104544   549            584            573            262            102576         1.0668611e-12
       210   1007.5345         105148   550            584            570            265            103179         1.069204e-12 
       211   1020.8721         105756   550            586            568            267            103785         1.0715795e-12
       212   1034.3887         106383   550            587            565            271            104410         1.0740388e-12
       213   1047.9936         106968   551            588            563            274            104992         1.0763159e-12
       214   1061.7253         107597   551            588            558            280            105620         1.0787284e-12
       215   1075.5506         108194   552            588            555            283            106216         1.0811569e-12
       216   1089.5064         108810   553            588            552            286            106831         1.0836691e-12
       217   1103.5644         109411   553            588            544            295            107431         1.0861234e-12
       218   1117.757          110031   553            589            539            300            108050         1.0885868e-12
       219   1132.0382         110638   553            589            539            302            108655         1.0910726e-12
       220   1146.7113         111256   553            589            532            309            109273         1.0936438e-12
       221   1161.2765         111862   553            589            526            316            109878         1.0961639e-12
       222   1175.9966         112485   553            589            526            318            110499         1.0989221e-12
       223   1190.7556         113081   553            589            521            325            111093         1.1015982e-12
       224   1205.6287         113702   553            590            518            329            111712         1.1045442e-12
       225   1220.6006         114317   554            590            515            335            112323         1.1074614e-12
       226   1235.6601         114925   555            590            515            339            112926         1.1106196e-12
       227   1250.8239         115523   556            590            517            341            113519         1.1138527e-12
       228   1266.1977         116143   556            589            518            344            114136         1.1172915e-12
       229   1281.637          116728   557            589            515            349            114718         1.120776e-12 
       230   1297.4871         117350   558            589            520            351            115332         1.1247428e-12
       231   1313.2064         117943   559            590            520            354            115920         1.1287934e-12
       232   1329.0646         118541   560            591            527            356            116507         1.1332353e-12
       233   1345.149          119142   561            591            532            359            117099         1.1378944e-12
       234   1361.2088         119734   561            593            535            365            117680         1.1427367e-12
       235   1377.4854         120320   561            595            537            371            118256         1.1477072e-12
       236   1393.9084         120911   562            596            538            374            118841         1.1531199e-12
       237   1410.4481         121499   565            597            547            380            119410         1.1585792e-12
       238   1427.079          122069   566            599            554            386            119964         1.1642185e-12
       239   1443.9028         122647   569            601            556            395            120526         1.1698786e-12
       240   1461.0707         123213   571            606            558            402            121076         1.1758328e-12
       241   1478.0703         123752   573            612            561            408            121598         1.1815276e-12
       242   1495.1838         124319   576            616            566            416            122145         1.187277e-12 
       243   1512.3417         124855   582            620            573            419            122661         1.1928481e-12
       244   1529.6778         125407   585            623            572            426            123201         1.1983425e-12
       245   1547.2042         125969   591            626            577            433            123742         1.2038177e-12
       246   1564.8651         126511   594            626            577            445            124269         1.2093646e-12
       247   1582.5206         127053   603            636            584            448            124782         1.2146175e-12
       248   1600.3343         127634   606            641            582            457            125348         1.2199743e-12
       249   1618.2526         128197   609            648            578            467            125895         1.2250416e-12
       250   1636.584          128750   612            649            576            473            126440         1.2295823e-12
       251   1654.6865         129327   614            653            573            478            127009         1.2338862e-12
       252   1672.971          129965   617            657            570            486            127635         1.2382421e-12
       253   1691.4794         130584   621            659            569            490            128245         1.2421438e-12
       254   1709.9485         131223   622            660            560            501            128880         1.2457426e-12
       255   1728.5171         131878   622            658            554            512            129532         1.2490325e-12
       256   1747.2339         132567   623            659            551            516            130218         1.2522026e-12
       257   1766.0765         133230   626            659            545            523            130877         1.255226e-12 
       258   1785.0518         133965   627            659            540            528            131611         1.2583704e-12
       259   1804.1805         134643   625            661            534            536            132287         1.2612878e-12
       260   1823.7942         135355   624            661            530            543            132997         1.2642411e-12
       261   1843.2106         136077   623            662            528            549            133715         1.2671993e-12
       262   1862.7892         136802   624            663            527            550            134438         1.2701319e-12
       263   1882.5506         137527   623            664            526            554            135160         1.273089e-12 
       264   1902.4002         138256   624            664            523            557            135888         1.2760538e-12
       265   1922.4547         138958   624            664            520            560            136590         1.2788787e-12
       266   1942.6267         139707   624            664            519            561            137339         1.2819816e-12
       267   1962.9571         140397   624            664            517            563            138029         1.2848073e-12
       268   1983.3979         141140   624            664            514            566            138772         1.2878969e-12
       269   2004.0854         141834   624            664            506            575            139465         1.2906642e-12
       270   2025.2207         142570   624            663            507            578            140198         1.2937383e-12
       271   2046.2245         143265   625            663            505            580            140892         1.2965565e-12
       272   2067.3598         143995   625            663            503            583            141621         1.299578e-12 
       273   2088.6804         144698   625            663            502            584            142324         1.3023973e-12
       274   2110.2138         145430   625            663            503            584            143055         1.3053859e-12
       275   2131.9341         146121   625            663            503            585            143745         1.308189e-12 
       276   2153.788          146856   625            663            503            585            144480         1.3111962e-12
       277   2175.8133         147555   624            665            502            588            145176         1.31403e-12  
       278   2198.0867         148269   624            666            499            591            145889         1.3169126e-12
       279   2220.4878         148989   624            666            497            594            146608         1.3198638e-12
       280   2243.3813         149691   624            665            498            595            147309         1.3226951e-12
       281   2266.1179         150413   626            666            496            597            148028         1.3256139e-12
       282   2288.9862         151112   626            667            495            599            148725         1.3283862e-12
       283   2312.0614         151847   627            667            494            600            149459         1.3313686e-12
       284   2335.327          152550   627            666            495            601            150161         1.3341743e-12
       285   2358.8518         153264   627            666            495            601            150875         1.3370862e-12
       286   2382.604          153975   627            666            493            603            151586         1.339897e-12 
       287   2406.5552         154683   626            666            491            606            152294         1.3428194e-12
       288   2430.5007         155380   626            666            489            608            152991         1.3455631e-12
       289   2454.6179         156093   626            666            489            608            153704         1.3485184e-12
       290   2479.2812         156791   626            666            488            609            154402         1.351267e-12 
       291   2503.7164         157505   628            666            486            612            155113         1.354167e-12 
       292   2528.2815         158198   628            666            487            612            155805         1.3569525e-12
       293   2553.0108         158906   628            667            486            613            156512         1.3598297e-12
       294   2577.957          159638   628            668            486            614            157242         1.3627216e-12
       295   2603.0555         160328   627            668            487            615            157931         1.3655411e-12
       296   2628.286          161040   629            669            487            615            158640         1.3683806e-12
       297   2653.692          161733   628            670            487            616            159332         1.3711901e-12
       298   2679.239          162441   628            671            486            617            160039         1.3739929e-12
       299   2704.9214         163161   628            672            483            620            160758         1.3769124e-12
       300   2731.1573         163852   628            672            484            620            161448         1.3796609e-12
Loop time of 2731.16 on 16 procs for 300 steps with 163852 atoms

95.9% CPU use with 16 MPI tasks x 1 OpenMP threads

MPI task timing breakdown:
Section |  min time  |  avg time  |  max time  |%varavg| %total
---------------------------------------------------------------
Pair    | 832.79     | 950.06     | 1026.1     | 139.2 | 34.79
Neigh   | 687.61     | 749.39     | 808.82     | 104.8 | 27.44
Comm    | 347.26     | 357.69     | 367.5      |  28.7 | 13.10
Output  | 69.826     | 69.826     | 69.827     |   0.0 |  2.56
Modify  | 516.18     | 594.17     | 778.76     | 255.7 | 21.76
Other   |            | 10.02      |            |       |  0.37

Nlocal:        10240.8 ave       10508 max        9841 min
Histogram: 1 0 0 2 2 4 1 3 1 2
Nghost:        7865.88 ave        8081 max        7706 min
Histogram: 4 1 1 1 4 0 1 1 1 2
Neighs:         124349 ave      130522 max      115847 min
Histogram: 1 0 0 2 3 2 4 1 2 1

Total # of neighbors = 1989587
Ave neighs/atom = 12.142586
Neighbor list builds = 26380
Dangerous builds = 26080

Total wall time: 0:45:31
