LAMMPS (23 Jun 2022 - Update 4)
  using 1 OpenMP thread(s) per MPI task
package omp 0
using multi-threaded neighbor list subroutines
#-----------------------------------------------------------------------------#
#                NUFEB Simulation: Heterotrophic Biofilm Growth               #
#-----------------------------------------------------------------------------#


#-----------------------------System Settings---------------------------------#

units si                                    # using si units (m, s, kg)
atom_style      coccus                      # using nufeb coccus atom style
atom_modify     map array sort 10 0         # map array - find atoms using indices
		                            # sort every 10

boundary        pp pp ff                    # periodic boundaries in x and y
                                            # fixed boundary in z

newton          off                         # forces between local and ghost
                                            # atoms are computed in each
					     # processor without communication

processors      * * 1                       # processor grid

comm_modify     vel yes                     # communicate velocities for ghost atoms

read_data       atom_ch.in	             # read atom.in file which defines domain size
Reading data file ...
  orthogonal box = (0 0 0) to (6e-05 6e-05 6e-05)
  4 by 4 by 1 MPI processor grid
  reading atoms ...
  150 atoms
  read_data CPU = 0.016 seconds
                                            # and initial atoms


#--------------------Microbes and Functional Groups-------------------------#

group           CROSS1   type 1               # assign type 1,2 atoms to CROSS group
50 atoms in group CROSS1
group           CROSS2   type 2
50 atoms in group CROSS2
group		CHEATER  type 3
50 atoms in group CHEATER
group           dead     type 4
0 atoms in group dead
group		EPS	 type 5
0 atoms in group EPS

neighbor        5e-7 bin                   # setting neighbour skin distance and style

neigh_modify    check yes                  # rebuild neighbour list if any atom
                                           # had moved more than half the skin distance


#--------------------------Mesh Grid and Substrates--------------------------#

# defining grid sytle, substrate names, and grid size
grid_style      nufeb/chemostat 3 sub metab1 metab2 5e-6

# set diffusion boundary conditions and initial concentrations (liquid:kg/m3)
grid_modify     set sub      pp pp nd  1.8e-4
No /omp style for force computation currently active
grid_modify     set metab1   pp pp nd  1e-4
No /omp style for force computation currently active
grid_modify     set metab2   pp pp nd  1e-4
No /omp style for force computation currently active


#--------------------------Biological Processes-------------------------------#

# heterotrophs growth
fix growth_cross1 CROSS1 nufeb/growth/cross1 sub 3.5e-5 metab2 4e-3 metab1 growth 0.009 yield 0.6 decay 2.6e-6 metab1_exp 20 epsyield 0.12 epsdens 30

fix growth_cross2 CROSS2 nufeb/growth/cross2 sub 3.5e-5 metab1 4e-3 metab2 growth 0.009 yield 0.6 decay 2.6e-6 metab2_exp 20 epsyield 0.12 epsdens 30

fix growth_cheater CHEATER nufeb/growth/cheater sub 3.5e-5 metab1 1e-3 metab2 1e-3 growth 0.009 yield 0.6 decay 2.6e-6 epsyield 0.12 epsdens 30

# heterotrophs division, division diameter: 1.36e-6
fix div1 CROSS1 nufeb/division/coccus 1.36e-6 328
fix div2 CROSS2 nufeb/division/coccus 1.36e-6 1006
fix div3 CHEATER nufeb/division/coccus 1.36e-6 2134

fix death1 CROSS1 nufeb/death/diameter dead 5.43e-7
fix death2 CROSS2 nufeb/death/diameter dead 5.43e-7
fix death3 CHEATER nufeb/death/diameter dead 5.43e-7

# EPS secretion from heterotrophs
fix eps1 CROSS1 nufeb/eps_secretion 5 EPS 1.1 30 3712
fix eps2 CROSS2 nufeb/eps_secretion 5 EPS 1.1 30 5740
fix eps3 CROSS2 nufeb/eps_secretion 5 EPS 1.1 30 8218
#---------------------------Physical Processes--------------------------------#

pair_style  gran/hooke/history 1e-4 NULL 1e-5 NULL 0.0 0    # pairwise interaction
pair_coeff  * *                                             # between atoms

# pairwise interaction between z-wall and atoms
fix wall all wall/gran hooke/history 1e-3 NULL 1e-4 NULL 0 0 zplane 0.0 1e-04

fix vis all viscous 1e-5                                    # viscous damping force

fix grav all gravity 9.81 vector 0.0 0.0 -1.0

fix nve all nve/limit 1e-7                                  # NVE integration with
                                                            # maximum distance limit


#---------------------------Post-Physical Processes---------------------------#

fix coeff_sub all nufeb/diffusion_coeff sub ratio 0.8       # defining diffusion coeff in the biofilm
fix coeff_metab1 all nufeb/diffusion_coeff metab1 ratio 0.8    # region is 80% of the value in liquid
fix coeff_metab2 all nufeb/diffusion_coeff metab2 ratio 0.8

#---------------------------Chemical Processes---------------------------------#

fix diff_sub all nufeb/diffusion_reaction sub 1e-9        # diffusion reaction for updating
fix diff_metab1 all nufeb/diffusion_reaction metab1 4e-9     # distribusion of substrate concentration
fix diff_metab2 all nufeb/diffusion_reaction metab2 4e-9

#--------------------------Computations and Outputs----------------------------#

variable mass equal "mass(all)"                             # total mass
variable ncross1 equal "count(CROSS1)"                      # total # of CROSS1
variable ncross2 equal "count(CROSS2)"                      # total # of CROSS2
variable ncheater equal "count(CHEATER)"
variable ndead equal "count(dead)"
variable neps equal "count(EPS)"

shell mkdir vtk_CHEPS_ch                                            # dump vtk files to /vtk folder
dump du1 all vtk 10 vtk_CHEPS_ch/dump*.vtu id type diameter         # require build NUFEB with vtk option
dump du2 all grid/vtk 10 vtk_CHEPS_ch/dump_%_*.vti con rea den gro

#dump du3 all movie 10 movie.avi type diameter view 80 60    # dump video
#dump_modify du3 acolor 1 blue acolor 2 lightgrey framerate 10


                                                            # dump hdf5 files to /hdf5 folder
#shell mkdir hdf5                                           # require build NUFEB with hdf5 option
#dump du3 all nufeb/hdf5 10 dump.h5 id type x y z vx vy vz fx fy fz radius conc reac

thermo_style custom step cpu atoms v_ncross1 v_ncross2 v_ncheater v_ndead v_neps v_mass     # screen and log outputs
thermo 1
thermo_modify   lost ignore

#-----------------------------------Run----------------------------------------#

# issue run command, define timesteps for physical (pairdt) and chemical (diffdt) processes
run_style nufeb diffdt 1e-4 difftol 1e-6 pairdt 1e-2 pairtol 1 pairmax 1000 diffmax 5000

timestep 12000                                               # define biological timesteps (1000s)

run 300                                                    # growing biofilm for 900x1000s
Generated 0 of 6 mixed pair_coeff terms from geometric mixing rule
Last active /omp style is pair_style gran/hooke/history/omp
Neighbor list info ...
  update every 1 steps, delay 10 steps, check yes
  max neighbors/atom: 2000, page size: 100000
  master list distance cutoff = 2.49e-06
  ghost atom cutoff = 2.49e-06
  binsize = 1.245e-06, bins = 49 49 49
  1 neighbor lists, perpetual/occasional/extra = 1 0 0
  (1) pair gran/hooke/history/omp, perpetual
      attributes: half, newton off, size, history, omp
      pair build: half/size/bin/newtoff/omp
      stencil: full/bin/3d
      bin: standard
Per MPI rank memory allocation (min/avg/max) = 11.02 | 11.02 | 11.02 Mbytes
   Step          CPU          Atoms      v_ncross1      v_ncross2      v_ncheater      v_ndead         v_neps         v_mass    
         0   0                    150   50             50             50             0              0              1.3295396e-13
         1   0.38602606           489   90             85             83             0              231            1.6437766e-13
         2   0.76538911           909   123            127            124            0              535            1.8150355e-13
         3   1.0555208           1235   130            142            138            0              825            1.9569921e-13
         4   1.3369893           1547   136            150            143            0              1118           2.0881982e-13
         5   1.5211999           1880   139            159            151            0              1431           2.2140063e-13
         6   1.6512049           2212   143            169            159            0              1741           2.3372543e-13
         7   1.7868611           2580   153            182            167            0              2078           2.4583928e-13
         8   1.9436043           2940   163            190            176            0              2411           2.5758074e-13
         9   2.0725134           3299   168            197            177            0              2757           2.6905838e-13
        10   2.2323877           3685   175            209            184            0              3117           2.8033365e-13
        11   2.3734389           4070   179            220            189            0              3482           2.9136318e-13
        12   2.4834393           4460   186            225            197            0              3852           3.0220246e-13
        13   2.6059318           4849   191            227            206            0              4225           3.1288407e-13
        14   2.7216486           5246   197            237            217            0              4595           3.2335498e-13
        15   2.8414561           5639   201            240            220            0              4978           3.3362897e-13
        16   2.9388283           6055   210            245            225            0              5375           3.4376528e-13
        17   3.0605608           6445   215            247            229            0              5754           3.5362708e-13
        18   3.1790891           6854   224            255            236            0              6139           3.6334706e-13
        19   3.2831152           7275   227            258            249            0              6541           3.7295356e-13
        20   4.2020379           7669   232            262            256            0              6919           3.8224102e-13
        21   4.3011143           8096   239            271            263            0              7323           3.9151994e-13
        22   4.3921042           8510   247            277            269            0              7717           4.005334e-13 
        23   4.4724896           8926   250            283            279            0              8114           4.094212e-13 
        24   4.5789696           9353   259            287            284            0              8523           4.1820253e-13
        25   4.6921197           9754   261            291            287            0              8915           4.2673933e-13
        26   4.8026132          10178   262            296            293            0              9327           4.3521399e-13
        27   4.9086705          10586   264            299            298            0              9725           4.4348465e-13
        28   5.0277912          11008   269            303            306            0              10130          4.5143116e-13
        29   5.1186032          11426   272            309            311            0              10534          4.5908823e-13
        30   5.2516679          11839   274            311            319            0              10935          4.6663673e-13
        31   5.3859062          12252   276            313            326            0              11337          4.739444e-13 
        32   5.4988459          12663   279            315            333            0              11736          4.8099221e-13
        33   5.6310621          13090   283            320            338            0              12149          4.879782e-13 
        34   5.7608586          13506   287            327            342            0              12550          4.9473728e-13
        35   5.912294           13934   287            331            347            0              12969          5.0142822e-13
        36   6.2190171          14354   292            331            350            0              13381          5.078599e-13 
        37   6.5773681          14769   292            333            353            0              13791          5.1421103e-13
        38   7.1195018          15198   294            337            357            0              14210          5.2044578e-13
        39   7.7635208          15619   297            340            362            0              14620          5.2643398e-13
        40   8.4633321          16049   300            340            364            0              15045          5.3228663e-13
        41   9.3527388          16465   302            345            366            0              15452          5.3788782e-13
        42   10.229477          16883   303            346            367            0              15867          5.432968e-13 
        43   11.10176           17292   304            348            369            0              16271          5.4862301e-13
        44   12.008735          17734   310            353            374            0              16697          5.5388768e-13
        45   12.920427          18161   314            356            375            0              17116          5.5899849e-13
        46   13.864238          18588   318            357            375            0              17538          5.6403846e-13
        47   14.800687          19024   320            360            379            0              17965          5.6904045e-13
        48   15.769667          19448   325            361            382            0              18380          5.7383916e-13
        49   16.765569          19900   326            363            386            0              18825          5.7865713e-13
        50   58.210311          20317   329            365            389            0              19234          5.8325132e-13
        51   59.236483          20762   331            367            394            0              19670          5.878344e-13 
        52   60.283277          21202   334            374            397            0              20097          5.923e-13    
        53   61.347714          21622   335            374            400            0              20513          5.9650532e-13
        54   62.437024          22088   337            377            406            0              20968          6.0087293e-13
        55   63.577703          22511   341            379            407            0              21384          6.049764e-13 
        56   64.719904          22961   346            381            411            0              21823          6.0906502e-13
        57   65.918783          23420   350            382            418            0              22270          6.1312883e-13
        58   67.117533          23860   352            382            419            0              22707          6.1697123e-13
        59   68.347913          24310   352            384            422            0              23152          6.2087188e-13
        60   78.701357          24747   353            386            425            0              23583          6.2455814e-13
        61   79.981351          25216   356            388            428            0              24044          6.2837581e-13
        62   81.277502          25638   358            391            428            0              24461          6.3183067e-13
        63   82.603951          26112   363            394            429            0              24926          6.3547339e-13
        64   83.975109          26562   363            396            431            0              25372          6.3896741e-13
        65   85.363404          27020   366            397            432            0              25825          6.4244308e-13
        66   86.773944          27458   366            401            432            0              26259          6.4575972e-13
        67   88.238946          27924   366            406            434            0              26718          6.4920594e-13
        68   89.724054          28385   368            409            438            0              27170          6.5238504e-13
        69   91.236496          28839   371            410            440            0              27618          6.5556917e-13
        70   116.9257           29308   372            413            443            0              28080          6.5880476e-13
        71   118.50257          29768   373            414            443            0              28538          6.6192301e-13
        72   120.11604          30221   373            416            443            0              28989          6.6501497e-13
        73   121.76885          30689   373            418            448            0              29450          6.6808703e-13
        74   123.45618          31159   376            421            449            0              29913          6.7108775e-13
        75   125.17346          31629   377            422            452            0              30378          6.741235e-13 
        76   126.92502          32100   378            424            454            0              30844          6.7719103e-13
        77   128.71072          32550   382            426            456            0              31286          6.8011045e-13
        78   130.54591          33022   383            426            461            0              31752          6.8315583e-13
        79   132.40798          33485   385            430            468            0              32202          6.8603867e-13
        80   134.38594          33978   387            430            472            0              32689          6.8909027e-13
        81   136.41938          34424   389            434            473            0              33128          6.9185343e-13
        82   138.48056          34919   391            436            474            0              33618          6.9494764e-13
        83   140.54137          35378   391            438            476            0              34073          6.9797221e-13
        84   142.66368          35845   391            439            479            0              34536          7.0108861e-13
        85   144.78495          36310   391            440            481            0              34998          7.0419072e-13
        86   146.97521          36802   394            441            484            0              35483          7.0740243e-13
        87   149.24064          37239   395            442            486            0              35916          7.1039788e-13
        88   151.55911          37746   398            446            487            0              36415          7.138181e-13 
        89   153.9327           38200   398            450            490            0              36862          7.1706859e-13
        90   156.45848          38684   400            450            493            0              37341          7.2058756e-13
        91   158.9428           39149   401            451            496            0              37801          7.2409898e-13
        92   161.54314          39624   403            455            502            0              38264          7.2781381e-13
        93   164.13613          40082   404            458            505            0              38715          7.3177907e-13
        94   166.78964          40562   405            459            510            0              39188          7.3614418e-13
        95   169.46445          41022   405            463            520            0              39634          7.4063091e-13
        96   172.16085          41508   405            466            529            0              40108          7.4523915e-13
        97   174.89991          41982   405            471            536            0              40570          7.4989353e-13
        98   177.77663          42446   406            471            540            0              41029          7.5467065e-13
        99   180.69417          42913   406            474            551            0              41482          7.5995154e-13
       100   183.71125          43386   406            478            563            0              41939          7.6551298e-13
       101   186.77464          43873   406            479            576            0              42412          7.7118612e-13
       102   189.80211          44312   408            482            587            0              42835          7.7706444e-13
       103   192.96689          44799   409            485            598            0              43307          7.8321128e-13
       104   196.18888          45245   410            485            616            0              43734          7.8966452e-13
       105   199.4123           45712   411            490            629            0              44182          7.9682711e-13
       106   202.68122          46162   412            494            641            0              44615          8.0386624e-13
       107   206.03321          46655   413            498            660            1              45083          8.1109331e-13
       108   209.47608          47078   413            500            676            1              45488          8.1828121e-13
       109   212.91709          47543   417            502            695            1              45928          8.2559646e-13
       110   216.59621          47982   419            505            709            3              46346          8.3290202e-13
       111   220.22311          48409   420            507            722            4              46756          8.4003102e-13
       112   223.96282          48861   426            512            738            5              47180          8.4680665e-13
       113   227.77836          49281   429            514            745            6              47587          8.5334046e-13
       114   231.66303          49729   434            523            753            6              48013          8.5919582e-13
       115   235.52302          50143   437            527            761            8              48410          8.6456737e-13
       116   239.45899          50584   444            531            772            8              48829          8.6971662e-13
       117   243.37212          51022   449            534            775            11             49253          8.7474539e-13
       118   247.44516          51503   456            540            780            14             49713          8.7958314e-13
       119   251.56105          51969   459            543            782            18             50167          8.8387954e-13
       120   255.84073          52438   463            544            790            18             50623          8.8770013e-13
       121   260.01853          52937   465            551            792            20             51109          8.9121834e-13
       122   264.27571          53482   472            554            791            24             51641          8.9465464e-13
       123   268.62376          53969   474            554            790            26             52125          8.9754874e-13
       124   273.03303          54516   475            556            787            30             52668          9.0048063e-13
       125   277.48625          55092   479            564            785            34             53230          9.0314579e-13
       126   281.98151          55633   480            567            782            39             53765          9.0555599e-13
       127   286.53781          56208   480            569            780            42             54337          9.0796247e-13
       128   291.19436          56782   481            570            777            46             54908          9.1032737e-13
       129   295.91849          57379   482            572            774            49             55502          9.12638e-13  
       130   300.90806          57979   484            573            774            49             56099          9.1495334e-13
       131   305.82695          58548   485            573            771            53             56666          9.17115e-13  
       132   310.88447          59169   487            574            765            59             57284          9.1944172e-13
       133   315.98008          59768   487            574            764            60             57883          9.2163723e-13
       134   321.18888          60350   487            574            761            63             58465          9.2371203e-13
       135   326.50864          60953   487            574            762            64             59066          9.2593925e-13
       136   331.92546          61534   488            574            761            65             59646          9.2812047e-13
       137   337.45             62132   489            574            759            69             60241          9.3036585e-13
       138   343.07743          62733   491            574            759            70             60839          9.3260731e-13
       139   348.81336          63318   493            575            757            72             61421          9.3482209e-13
       140   354.80539          63921   493            575            752            77             62024          9.3702858e-13
       141   360.75226          64499   494            576            749            80             62600          9.3910979e-13
       142   366.86815          65097   494            577            747            83             63196          9.4125303e-13
       143   373.02993          65682   494            578            743            87             63780          9.4334957e-13
       144   379.32896          66273   495            578            741            89             64370          9.455166e-13 
       145   385.7065           66853   495            578            740            91             64949          9.4760669e-13
       146   392.17813          67468   495            578            737            94             65564          9.4985777e-13
       147   398.75697          68040   495            578            737            95             66135          9.5188098e-13
       148   405.43286          68631   498            578            737            96             66722          9.539675e-13 
       149   412.24324          69229   498            578            735            98             67320          9.5619608e-13
       150   419.31964          69804   498            579            734            99             67894          9.5826772e-13
       151   426.33955          70391   499            582            735            99             68476          9.6040932e-13
       152   433.50417          70991   500            582            732            102            69075          9.6259796e-13
       153   440.73899          71571   502            582            730            104            69653          9.648115e-13 
       154   448.08568          72164   502            583            726            108            70245          9.6703357e-13
       155   455.56946          72779   505            584            723            112            70855          9.6940047e-13
       156   463.13245          73349   505            585            723            112            71424          9.7146926e-13
       157   470.80021          73949   505            585            725            113            72021          9.7370524e-13
       158   478.6038           74529   505            585            724            114            72601          9.7580521e-13
       159   486.49922          75143   505            587            722            116            73213          9.7808483e-13
       160   494.67327          75723   506            587            721            118            73791          9.8022107e-13
       161   502.78824          76299   506            588            719            121            74365          9.8232812e-13
       162   511.02429          76892   507            588            714            126            74957          9.8449075e-13
       163   519.34565          77499   508            589            711            129            75562          9.8671144e-13
       164   527.78439          78087   508            590            708            132            76149          9.8891486e-13
       165   536.30997          78687   509            590            706            135            76747          9.9112459e-13
       166   544.94419          79277   511            590            700            141            77335          9.9335206e-13
       167   553.70107          79870   511            591            698            143            77927          9.9555807e-13
       168   562.58201          80466   512            591            696            145            78522          9.9777343e-13
       169   571.54649          81041   512            591            695            146            79097          1.0000092e-12
       170   580.83452          81673   512            592            697            147            79725          1.002389e-12 
       171   590.0656           82240   512            592            697            148            80291          1.0044655e-12
       172   599.38071          82839   514            592            693            152            80888          1.0067469e-12
       173   608.81912          83438   515            592            691            154            81486          1.0089492e-12
       174   618.39444          84040   515            593            687            159            82086          1.0112284e-12
       175   628.02534          84628   516            593            684            164            82671          1.0134734e-12
       176   637.77129          85220   517            594            681            168            83260          1.0158698e-12
       177   647.61375          85833   518            594            681            170            83870          1.0182179e-12
       178   657.56446          86410   518            594            680            172            84446          1.0204629e-12
       179   667.60443          87003   518            595            676            176            85038          1.0227592e-12
       180   677.94616          87628   518            596            674            178            85662          1.0251879e-12
       181   688.22583          88214   519            596            675            178            86246          1.0274797e-12
       182   698.64534          88800   521            597            672            181            86829          1.0298075e-12
       183   709.14065          89412   521            597            667            186            87441          1.0322336e-12
       184   719.75519          90006   523            597            666            189            88031          1.0345994e-12
       185   730.50974          90602   523            600            664            192            88623          1.0369122e-12
       186   741.31659          91198   523            600            661            195            89219          1.0392121e-12
       187   752.28727          91819   526            601            660            196            89836          1.0416321e-12
       188   763.4021           92418   526            601            657            200            90434          1.0440128e-12
       189   774.63276          93026   526            601            654            203            91042          1.0463531e-12
       190   786.13823          93612   526            602            651            207            91626          1.0486459e-12
       191   797.57             94252   527            602            651            207            92265          1.0511602e-12
       192   809.15193          94827   527            602            650            210            92838          1.053364e-12 
       193   820.83455          95462   528            602            649            211            93472          1.055862e-12 
       194   832.63685          96045   530            602            648            213            94052          1.0581233e-12
       195   844.57121          96671   530            603            647            215            94676          1.0606456e-12
       196   856.6048           97245   531            603            644            218            95249          1.0628487e-12
       197   868.78065          97886   531            605            643            219            95888          1.0653932e-12
       198   881.01969          98480   533            605            643            219            96480          1.0677106e-12
       199   893.37636          99088   533            605            642            220            97088          1.0701279e-12
       200   906.14921          99685   535            605            638            227            97680          1.0724377e-12
       201   918.77823         100316   535            605            636            229            98311          1.0749427e-12
       202   931.54859         100910   535            605            633            232            98905          1.0772921e-12
       203   944.41934         101532   536            605            634            232            99525          1.079743e-12 
       204   957.43075         102137   538            605            634            232            100128         1.0821114e-12
       205   970.53186         102757   537            607            634            234            100745         1.0845354e-12
       206   983.73725         103363   537            607            632            237            101350         1.0868941e-12
       207   997.05753         103978   537            607            630            240            101964         1.0893324e-12
       208   1010.5179         104580   537            607            630            240            102566         1.0917483e-12
       209   1024.1261         105198   538            608            630            240            103182         1.094175e-12 
       210   1038.1389         105812   538            608            628            243            103795         1.096578e-12 
       211   1051.9695         106412   538            609            625            246            104394         1.0988944e-12
       212   1065.9568         107029   538            611            621            250            105009         1.1013008e-12
       213   1079.9909         107643   538            610            620            253            105622         1.1037661e-12
       214   1094.165          108254   538            610            617            256            106233         1.1061727e-12
       215   1108.4425         108875   538            610            617            256            106854         1.1086045e-12
       216   1122.8374         109466   538            610            612            261            107445         1.1109669e-12
       217   1137.3795         110108   538            610            610            265            108085         1.1135718e-12
       218   1152.0729         110686   538            611            609            267            108661         1.115835e-12 
       219   1166.8794         111333   539            613            605            272            109304         1.1184844e-12
       220   1182.059          111912   539            612            605            273            109883         1.120917e-12 
       221   1197.0836         112559   539            612            605            275            110528         1.1236393e-12
       222   1212.2282         113136   540            613            601            280            111102         1.1260523e-12
       223   1227.4615         113779   541            614            598            284            111742         1.1288063e-12
       224   1242.8119         114374   541            615            599            285            112334         1.1314287e-12
       225   1258.2081         115026   542            616            597            287            112984         1.1342203e-12
       226   1273.729          115607   542            616            598            288            113563         1.1368299e-12
       227   1289.3594         116246   542            616            602            291            114195         1.1398847e-12
       228   1305.1752         116839   542            616            601            293            114787         1.1428641e-12
       229   1321.1639         117466   542            616            602            295            115411         1.1463346e-12
       230   1337.5969         118086   542            617            604            300            116023         1.149918e-12 
       231   1353.8808         118693   543            616            605            306            116623         1.1538882e-12
       232   1370.2971         119302   543            618            607            309            117225         1.1579752e-12
       233   1386.8596         119909   543            618            607            313            117828         1.1622547e-12
       234   1403.6241         120508   543            621            617            315            118412         1.1669777e-12
       235   1420.5379         121097   543            621            621            319            118993         1.1723022e-12
       236   1437.4401         121727   543            624            634            321            119605         1.1780921e-12
       237   1454.551          122289   544            625            643            323            120154         1.1838273e-12
       238   1471.7624         122887   544            625            658            325            120735         1.1901716e-12
       239   1489.0845         123473   544            628            664            329            121308         1.1967367e-12
       240   1506.8975         124053   546            628            679            336            121864         1.2036004e-12
       241   1524.4389         124634   545            630            691            341            122427         1.2109897e-12
       242   1542.1695         125210   545            633            703            344            122985         1.2183714e-12
       243   1560.0405         125780   547            634            719            347            123533         1.2258969e-12
       244   1578.061          126350   549            634            737            351            124079         1.2339283e-12
       245   1596.2593         126929   548            641            755            359            124626         1.2418277e-12
       246   1614.3904         127460   551            642            758            367            125142         1.2491336e-12
       247   1632.7292         128019   553            648            771            377            125670         1.2563428e-12
       248   1651.1933         128548   556            650            778            383            126181         1.2632293e-12
       249   1669.8024         129061   559            657            782            389            126674         1.269345e-12 
       250   1688.838          129597   562            665            790            392            127188         1.2746016e-12
       251   1707.6871         130106   568            667            788            397            127686         1.2796842e-12
       252   1726.5217         130648   575            670            789            400            128214         1.2843737e-12
       253   1745.4422         131223   579            674            792            404            128774         1.2884895e-12
       254   1764.6123         131787   580            676            791            409            129331         1.2923521e-12
       255   1783.9483         132376   584            677            793            412            129910         1.2957378e-12
       256   1803.3394         132974   587            680            789            419            130499         1.298645e-12 
       257   1822.8312         133602   586            682            781            431            131122         1.3015455e-12
       258   1842.4163         134280   590            682            778            437            131793         1.3041968e-12
       259   1862.1692         134958   590            681            774            445            132468         1.3067491e-12
       260   1882.4073         135643   588            679            769            455            133152         1.3092019e-12
       261   1902.5095         136348   587            678            763            464            133856         1.3118134e-12
       262   1922.7475         137034   586            678            756            473            134541         1.3142114e-12
       263   1943.142          137776   584            678            755            476            135283         1.3169012e-12
       264   1963.7034         138447   583            677            752            481            135954         1.3192194e-12
       265   1984.4326         139195   581            677            748            487            136702         1.3218865e-12
       266   2005.3812         139885   580            677            747            490            137391         1.3243797e-12
       267   2026.5041         140603   580            678            744            493            138108         1.326882e-12 
       268   2047.7365         141310   580            678            738            501            138813         1.3293746e-12
       269   2069.1792         142036   581            678            735            504            139538         1.3319822e-12
       270   2091.0894         142729   581            679            733            506            140230         1.3344493e-12
       271   2112.8482         143456   582            679            731            508            140956         1.3369986e-12
       272   2134.7977         144159   582            682            727            512            141656         1.3394407e-12
       273   2156.8716         144873   582            683            726            513            142369         1.3419185e-12
       274   2179.2231         145602   582            684            722            517            143097         1.344437e-12 
       275   2201.7364         146296   582            685            720            519            143790         1.3468302e-12
       276   2224.3738         147014   582            686            718            521            144507         1.3494051e-12
       277   2247.1552         147712   582            687            717            522            145204         1.3517747e-12
       278   2270.0328         148424   582            688            716            523            145915         1.3541961e-12
       279   2293.1245         149130   582            688            714            526            146620         1.3566302e-12
       280   2316.6646         149829   583            688            712            528            147318         1.3590517e-12
       281   2340.1209         150536   584            687            711            530            148024         1.361528e-12 
       282   2363.711          151225   584            687            709            532            148713         1.3639602e-12
       283   2387.489          151946   584            688            709            532            149433         1.3665383e-12
       284   2411.4809         152636   585            687            705            537            150122         1.3689687e-12
       285   2435.6047         153344   585            687            703            539            150830         1.3716374e-12
       286   2459.9122         154057   585            687            701            541            151543         1.3742051e-12
       287   2484.3168         154743   585            688            699            544            152227         1.376725e-12 
       288   2508.941          155456   585            689            697            548            152937         1.379403e-12 
       289   2533.7216         156168   585            689            695            550            153649         1.3819189e-12
       290   2559.0969         156853   585            689            691            554            154334         1.384416e-12 
       291   2584.2635         157563   585            688            688            559            155043         1.3869688e-12
       292   2609.5777         158256   585            689            687            560            155735         1.3893697e-12
       293   2635.1222         158993   584            689            684            564            156472         1.3920876e-12
       294   2660.7533         159651   584            689            684            565            157129         1.3943923e-12
       295   2686.6142         160395   585            689            684            565            157872         1.397157e-12 
       296   2712.6145         161082   585            689            680            569            158559         1.3996064e-12
       297   2738.7843         161775   585            689            677            572            159252         1.4022111e-12
       298   2765.1487         162492   586            691            676            574            159965         1.4048105e-12
       299   2791.6243         163192   586            692            676            575            160663         1.4074042e-12
       300   2818.5891         163883   586            692            676            575            161354         1.409966e-12 
Loop time of 2818.59 on 16 procs for 300 steps with 163883 atoms

96.2% CPU use with 16 MPI tasks x 1 OpenMP threads

MPI task timing breakdown:
Section |  min time  |  avg time  |  max time  |%varavg| %total
---------------------------------------------------------------
Pair    | 803.21     | 945.64     | 1059.2     | 198.3 | 33.55
Neigh   | 690.81     | 765.66     | 823.13     | 127.1 | 27.16
Comm    | 346.46     | 355.97     | 365.08     |  31.7 | 12.63
Output  | 79.857     | 79.857     | 79.859     |   0.0 |  2.83
Modify  | 516.13     | 661.13     | 883.63     | 349.9 | 23.46
Other   |            | 10.32      |            |       |  0.37

Nlocal:        10242.7 ave       10625 max        9769 min
Histogram: 1 0 2 1 3 2 2 1 3 1
Nghost:           7922 ave        8248 max        7581 min
Histogram: 1 0 1 3 3 2 3 1 1 1
Neighs:         125513 ave      132185 max      116259 min
Histogram: 1 0 2 0 3 2 3 1 2 2

Total # of neighbors = 2008206
Ave neighs/atom = 12.253901
Neighbor list builds = 26375
Dangerous builds = 26075

Total wall time: 0:47:00
