LAMMPS (23 Jun 2022 - Update 4)
  using 1 OpenMP thread(s) per MPI task
package omp 0
using multi-threaded neighbor list subroutines
#-----------------------------------------------------------------------------#
#                NUFEB Simulation: Heterotrophic Biofilm Growth               #
#-----------------------------------------------------------------------------#


#-----------------------------System Settings---------------------------------#

units si                                    # using si units (m, s, kg)
atom_style      coccus                      # using nufeb coccus atom style
atom_modify     map array sort 10 0         # map array - find atoms using indices
		                            # sort every 10

boundary        pp pp ff                    # periodic boundaries in x and y
                                            # fixed boundary in z

newton          off                         # forces between local and ghost
                                            # atoms are computed in each
					     # processor without communication

processors      * * 1                       # processor grid

comm_modify     vel yes                     # communicate velocities for ghost atoms

read_data       atom_ch.in	             # read atom.in file which defines domain size
Reading data file ...
  orthogonal box = (0 0 0) to (6e-05 6e-05 6e-05)
  4 by 4 by 1 MPI processor grid
  reading atoms ...
  150 atoms
  read_data CPU = 0.052 seconds
                                            # and initial atoms


#--------------------Microbes and Functional Groups-------------------------#

group           CROSS1   type 1               # assign type 1,2 atoms to CROSS group
50 atoms in group CROSS1
group           CROSS2   type 2
50 atoms in group CROSS2
group		CHEATER  type 3
50 atoms in group CHEATER
group           dead     type 4
0 atoms in group dead
group		EPS	 type 5
0 atoms in group EPS

neighbor        5e-7 bin                   # setting neighbour skin distance and style

neigh_modify    check yes                  # rebuild neighbour list if any atom
                                           # had moved more than half the skin distance


#--------------------------Mesh Grid and Substrates--------------------------#

# defining grid sytle, substrate names, and grid size
grid_style      nufeb/chemostat 3 sub metab1 metab2 5e-6

# set diffusion boundary conditions and initial concentrations (liquid:kg/m3)
grid_modify     set sub      pp pp nd  1.8e-4
No /omp style for force computation currently active
grid_modify     set metab1   pp pp nd  1e-4
No /omp style for force computation currently active
grid_modify     set metab2   pp pp nd  1e-4
No /omp style for force computation currently active


#--------------------------Biological Processes-------------------------------#

# heterotrophs growth
fix growth_cross1 CROSS1 nufeb/growth/cross1 sub 3.5e-5 metab2 4e-3 metab1 growth 0.009 yield 0.6 decay 2.6e-6 metab1_exp 20 epsyield 0.12 epsdens 30

fix growth_cross2 CROSS2 nufeb/growth/cross2 sub 3.5e-5 metab1 4e-3 metab2 growth 0.009 yield 0.6 decay 2.6e-6 metab2_exp 20 epsyield 0.12 epsdens 30

fix growth_cheater CHEATER nufeb/growth/cheater sub 3.5e-5 metab1 1e-3 metab2 1e-3 growth 0.009 yield 0.6 decay 2.6e-6 epsyield 0.12 epsdens 30

# heterotrophs division, division diameter: 1.36e-6
fix div1 CROSS1 nufeb/division/coccus 1.36e-6 247
fix div2 CROSS2 nufeb/division/coccus 1.36e-6 682
fix div3 CHEATER nufeb/division/coccus 1.36e-6 1405

fix death1 CROSS1 nufeb/death/diameter dead 5.43e-7
fix death2 CROSS2 nufeb/death/diameter dead 5.43e-7
fix death3 CHEATER nufeb/death/diameter dead 5.43e-7

# EPS secretion from heterotrophs
fix eps1 CROSS1 nufeb/eps_secretion 5 EPS 1.1 30 2416
fix eps2 CROSS2 nufeb/eps_secretion 5 EPS 1.1 30 3715
fix eps3 CROSS2 nufeb/eps_secretion 5 EPS 1.1 30 5302
#---------------------------Physical Processes--------------------------------#

pair_style  gran/hooke/history 1e-4 NULL 1e-5 NULL 0.0 0    # pairwise interaction
pair_coeff  * *                                             # between atoms

# pairwise interaction between z-wall and atoms
fix wall all wall/gran hooke/history 1e-3 NULL 1e-4 NULL 0 0 zplane 0.0 1e-04

fix vis all viscous 1e-5                                    # viscous damping force

fix grav all gravity 9.81 vector 0.0 0.0 -1.0

fix nve all nve/limit 1e-7                                  # NVE integration with
                                                            # maximum distance limit


#---------------------------Post-Physical Processes---------------------------#

fix coeff_sub all nufeb/diffusion_coeff sub ratio 0.8       # defining diffusion coeff in the biofilm
fix coeff_metab1 all nufeb/diffusion_coeff metab1 ratio 0.8    # region is 80% of the value in liquid
fix coeff_metab2 all nufeb/diffusion_coeff metab2 ratio 0.8

#---------------------------Chemical Processes---------------------------------#

fix diff_sub all nufeb/diffusion_reaction sub 1e-9        # diffusion reaction for updating
fix diff_metab1 all nufeb/diffusion_reaction metab1 4e-9     # distribusion of substrate concentration
fix diff_metab2 all nufeb/diffusion_reaction metab2 4e-9

#--------------------------Computations and Outputs----------------------------#

variable mass equal "mass(all)"                             # total mass
variable ncross1 equal "count(CROSS1)"                      # total # of CROSS1
variable ncross2 equal "count(CROSS2)"                      # total # of CROSS2
variable ncheater equal "count(CHEATER)"
variable ndead equal "count(dead)"
variable neps equal "count(EPS)"

shell mkdir vtk_CHEPS_ch                                            # dump vtk files to /vtk folder
dump du1 all vtk 10 vtk_CHEPS_ch/dump*.vtu id type diameter         # require build NUFEB with vtk option
dump du2 all grid/vtk 10 vtk_CHEPS_ch/dump_%_*.vti con rea den gro

#dump du3 all movie 10 movie.avi type diameter view 80 60    # dump video
#dump_modify du3 acolor 1 blue acolor 2 lightgrey framerate 10


                                                            # dump hdf5 files to /hdf5 folder
#shell mkdir hdf5                                           # require build NUFEB with hdf5 option
#dump du3 all nufeb/hdf5 10 dump.h5 id type x y z vx vy vz fx fy fz radius conc reac

thermo_style custom step cpu atoms v_ncross1 v_ncross2 v_ncheater v_ndead v_neps v_mass     # screen and log outputs
thermo 1
thermo_modify   lost ignore

#-----------------------------------Run----------------------------------------#

# issue run command, define timesteps for physical (pairdt) and chemical (diffdt) processes
run_style nufeb diffdt 1e-4 difftol 1e-6 pairdt 1e-2 pairtol 1 pairmax 1000 diffmax 5000

timestep 12000                                               # define biological timesteps (1000s)

run 300                                                    # growing biofilm for 900x1000s
Generated 0 of 6 mixed pair_coeff terms from geometric mixing rule
Last active /omp style is pair_style gran/hooke/history/omp
Neighbor list info ...
  update every 1 steps, delay 10 steps, check yes
  max neighbors/atom: 2000, page size: 100000
  master list distance cutoff = 2.49e-06
  ghost atom cutoff = 2.49e-06
  binsize = 1.245e-06, bins = 49 49 49
  1 neighbor lists, perpetual/occasional/extra = 1 0 0
  (1) pair gran/hooke/history/omp, perpetual
      attributes: half, newton off, size, history, omp
      pair build: half/size/bin/newtoff/omp
      stencil: full/bin/3d
      bin: standard
Per MPI rank memory allocation (min/avg/max) = 11.02 | 11.02 | 11.02 Mbytes
   Step          CPU          Atoms      v_ncross1      v_ncross2      v_ncheater      v_ndead         v_neps         v_mass    
         0   0                    150   50             50             50             0              0              1.3295396e-13
         1   0.38524822           492   90             85             83             0              234            1.6435834e-13
         2   0.76052878           897   118            125            124            0              530            1.8166413e-13
         3   1.052742            1243   129            145            140            0              829            1.957087e-13 
         4   1.3355833           1578   137            152            147            0              1142           2.0880271e-13
         5   1.5370385           1920   142            164            157            0              1457           2.2132851e-13
         6   1.6341131           2252   147            171            164            0              1770           2.3352087e-13
         7   1.8149048           2602   154            179            168            0              2101           2.4545904e-13
         8   1.9511827           2956   160            191            172            0              2433           2.5693341e-13
         9   2.0774452           3334   169            203            179            0              2783           2.6824663e-13
        10   14.634379           3716   170            212            185            0              3149           2.7937953e-13
        11   14.752276           4087   175            219            188            0              3505           2.9022179e-13
        12   14.84255            4480   182            228            197            0              3873           3.0084355e-13
        13   14.942213           4893   193            235            201            0              4264           3.1129687e-13
        14   15.042006           5290   202            238            207            0              4643           3.2147422e-13
        15   15.133639           5698   207            242            211            0              5038           3.3156828e-13
        16   15.221113           6096   214            249            214            0              5419           3.4143667e-13
        17   15.307932           6520   218            254            223            0              5825           3.5119554e-13
        18   15.40598            6928   221            263            234            0              6210           3.6071813e-13
        19   15.485477           7346   223            272            239            0              6612           3.7005095e-13
        20   15.628668           7776   230            277            246            0              7023           3.7925933e-13
        21   15.709322           8192   233            281            250            0              7428           3.881721e-13 
        22   15.79191            8598   236            281            258            0              7823           3.9690751e-13
        23   15.889303           9018   240            285            265            0              8228           4.0551958e-13
        24   15.996215           9438   242            291            269            0              8636           4.1410214e-13
        25   16.116132           9848   249            294            275            0              9030           4.2236138e-13
        26   16.197982          10262   250            298            279            0              9435           4.305049e-13 
        27   16.283086          10689   255            304            288            0              9842           4.3849996e-13
        28   16.388737          11109   258            309            293            0              10249          4.4638537e-13
        29   16.480605          11537   260            313            302            0              10662          4.5418115e-13
        30   16.622136          11948   264            316            306            0              11062          4.6180887e-13
        31   16.76775           12381   270            320            311            0              11480          4.6943454e-13
        32   16.905044          12786   273            326            313            0              11874          4.7669694e-13
        33   17.049016          13228   280            331            318            0              12299          4.8405862e-13
        34   17.220823          13658   282            334            325            0              12717          4.9118422e-13
        35   17.465312          14096   286            335            336            0              13139          4.9816232e-13
        36   17.750907          14505   288            337            345            0              13535          5.0487375e-13
        37   18.058426          14945   294            339            352            0              13960          5.1155049e-13
        38   18.644417          15361   294            340            353            0              14374          5.1789591e-13
        39   19.50876           15780   296            344            356            0              14784          5.240467e-13 
        40   37.489453          16198   298            345            357            0              15198          5.2975913e-13
        41   38.310264          16622   301            347            362            0              15612          5.3545773e-13
        42   39.16445           17051   305            350            364            0              16032          5.4091587e-13
        43   40.020928          17488   309            355            367            0              16457          5.4634685e-13
        44   40.883233          17894   310            357            369            0              16858          5.5158167e-13
        45   41.776805          18346   313            360            374            0              17299          5.5688463e-13
        46   42.69849           18779   317            364            379            0              17719          5.6188367e-13
        47   43.622771          19220   318            365            381            0              18156          5.6693822e-13
        48   44.569729          19640   320            369            384            0              18567          5.7169027e-13
        49   45.53094           20081   324            369            387            0              19001          5.7651265e-13
        50   46.595035          20522   324            371            389            0              19438          5.8119981e-13
        51   47.617629          20948   324            375            392            0              19857          5.8582787e-13
        52   48.674071          21370   327            377            396            0              20270          5.9030656e-13
        53   49.740697          21834   328            378            402            0              20726          5.9487144e-13
        54   50.825225          22270   332            380            405            0              21153          5.9923313e-13
        55   51.967715          22705   334            382            408            0              21581          6.0362185e-13
        56   53.114126          23146   337            384            414            0              22011          6.0800962e-13
        57   54.275279          23584   340            386            415            0              22443          6.1226788e-13
        58   55.463888          24025   341            386            421            0              22877          6.1648496e-13
        59   56.674198          24463   341            389            422            0              23311          6.2049269e-13
        60   58.000551          24898   344            391            424            0              23739          6.2432834e-13
        61   59.253055          25355   347            392            425            0              24191          6.2822498e-13
        62   60.529837          25781   349            397            428            0              24607          6.3195965e-13
        63   61.83842           26254   352            402            433            0              25067          6.3582537e-13
        64   63.180844          26707   353            405            434            0              25515          6.3953871e-13
        65   64.548874          27162   356            406            440            0              25960          6.4326505e-13
        66   65.932018          27617   356            409            443            0              26409          6.4698631e-13
        67   67.333349          28057   357            410            445            0              26845          6.5055325e-13
        68   68.7673            28506   357            411            448            0              27290          6.5414852e-13
        69   70.258945          28959   358            413            450            0              27738          6.5779438e-13
        70   71.836143          29419   360            414            451            0              28194          6.6143144e-13
        71   73.373787          29860   364            417            452            0              28627          6.6490464e-13
        72   74.942094          30308   366            417            454            0              29071          6.6835857e-13
        73   76.534699          30772   366            419            458            0              29529          6.7183056e-13
        74   78.192575          31210   367            421            460            0              29962          6.7513701e-13
        75   79.871222          31686   369            423            461            0              30433          6.7851439e-13
        76   81.584396          32134   369            424            462            0              30879          6.8166346e-13
        77   83.307997          32606   371            427            463            0              31345          6.8497007e-13
        78   85.084493          33052   372            427            467            0              31786          6.8823169e-13
        79   86.905387          33509   373            428            470            0              32238          6.9145158e-13
        80   88.869036          33979   377            429            471            0              32702          6.9464575e-13
        81   90.756673          34439   379            431            474            0              33155          6.9781802e-13
        82   92.66198           34900   381            433            476            0              33610          7.0104629e-13
        83   94.610043          35356   381            434            480            0              34061          7.0417997e-13
        84   96.61677           35810   382            437            484            0              34507          7.0728375e-13
        85   98.64088           36279   384            438            488            0              34969          7.1056388e-13
        86   100.74249          36756   385            439            491            0              35441          7.1393058e-13
        87   102.95494          37210   385            445            496            0              35884          7.1727442e-13
        88   105.1818           37704   386            446            508            0              36364          7.2120393e-13
        89   107.43792          38152   387            448            510            0              36807          7.2501285e-13
        90   109.88174          38602   387            448            515            0              37252          7.2899049e-13
        91   112.27677          39072   388            448            521            0              37715          7.33186e-13  
        92   114.68367          39530   389            451            527            0              38163          7.3762628e-13
        93   117.13601          39985   390            452            534            0              38609          7.4198814e-13
        94   119.59315          40439   391            454            539            0              39055          7.4659355e-13
        95   122.16284          40881   391            456            549            0              39485          7.5131077e-13
        96   124.73879          41362   392            458            559            0              39953          7.566945e-13 
        97   127.36535          41800   393            460            567            0              40380          7.6206457e-13
        98   130.04759          42268   393            464            584            0              40827          7.6786004e-13
        99   132.76334          42708   395            467            593            0              41253          7.7359581e-13
       100   135.66527          43175   395            469            605            0              41706          7.7985704e-13
       101   138.47327          43620   396            471            619            0              42134          7.8631643e-13
       102   141.33348          44052   397            474            632            0              42549          7.9267498e-13
       103   144.24268          44505   399            477            645            0              42984          7.9919294e-13
       104   147.19486          44957   400            482            665            0              43410          8.0586885e-13
       105   150.10997          45384   402            486            679            0              43817          8.1258805e-13
       106   153.10812          45836   403            494            688            1              44250          8.1933066e-13
       107   156.17109          46282   405            498            704            1              44674          8.2615523e-13
       108   159.28583          46726   406            502            717            1              45100          8.3294988e-13
       109   162.41676          47165   408            506            735            1              45515          8.3973122e-13
       110   165.77333          47617   411            508            749            1              45948          8.4657498e-13
       111   168.98384          48072   415            511            764            2              46380          8.5342269e-13
       112   172.28025          48501   415            512            774            3              46797          8.6039936e-13
       113   175.61258          48957   419            519            792            4              47223          8.6702213e-13
       114   179.02047          49397   422            523            799            8              47645          8.7383356e-13
       115   182.49225          49874   424            528            811            9              48102          8.8040998e-13
       116   186.00209          50320   425            529            828            11             48527          8.8657357e-13
       117   189.56024          50762   427            533            835            12             48955          8.9247621e-13
       118   193.22868          51246   435            535            845            16             49415          8.9808767e-13
       119   196.96321          51731   436            540            852            18             49885          9.0347055e-13
       120   200.85307          52173   440            542            861            21             50309          9.0831361e-13
       121   204.61658          52667   443            547            869            22             50786          9.1288836e-13
       122   208.47612          53168   447            549            874            25             51273          9.1708867e-13
       123   212.42483          53651   448            553            877            27             51746          9.2097994e-13
       124   216.3677           54137   451            556            880            27             52223          9.2432054e-13
       125   220.40756          54659   453            560            881            29             52736          9.2760703e-13
       126   224.43871          55197   457            567            883            30             53260          9.3040053e-13
       127   228.61129          55740   457            568            881            33             53801          9.3306074e-13
       128   232.76249          56267   458            568            878            39             54324          9.3553397e-13
       129   236.98782          56804   459            568            879            40             54858          9.3781756e-13
       130   241.42769          57381   461            568            879            44             55429          9.3994059e-13
       131   245.76737          57940   462            570            876            47             55985          9.4184185e-13
       132   250.15111          58527   462            570            875            49             56571          9.4373957e-13
       133   254.62525          59096   462            572            872            52             57138          9.4554322e-13
       134   259.1547           59676   462            573            868            57             57716          9.4727698e-13
       135   263.77966          60275   462            574            866            59             58314          9.4902328e-13
       136   268.47357          60869   462            575            863            63             58906          9.5075828e-13
       137   273.25279          61457   462            575            864            64             59492          9.5241986e-13
       138   278.10998          62045   462            575            862            66             60080          9.5415371e-13
       139   283.02762          62627   463            577            861            68             60658          9.5577187e-13
       140   288.19698          63229   463            578            859            70             61259          9.575615e-13 
       141   293.28264          63799   464            578            856            76             61825          9.5919713e-13
       142   298.46559          64399   465            578            854            80             62422          9.6094716e-13
       143   303.69045          64994   466            578            854            81             63015          9.6267354e-13
       144   309.02013          65557   466            578            848            87             63578          9.6424174e-13
       145   314.44785          66154   467            580            844            91             64172          9.6594256e-13
       146   319.93101          66744   468            580            842            93             64761          9.6766638e-13
       147   325.48356          67323   469            580            843            93             65338          9.6932729e-13
       148   331.18305          67914   472            582            841            95             65924          9.7108487e-13
       149   336.93486          68505   472            582            841            95             66515          9.7288565e-13
       150   342.92258          69087   473            582            841            96             67095          9.7456017e-13
       151   348.82888          69684   473            582            839            99             67691          9.763313e-13 
       152   354.79646          70269   474            584            838            100            68273          9.7811313e-13
       153   360.84011          70849   474            585            835            103            68852          9.798987e-13 
       154   367.04824          71446   474            585            830            108            69449          9.8174312e-13
       155   373.28162          72000   475            585            826            112            70002          9.8342924e-13
       156   379.5916           72593   477            586            819            119            70592          9.853491e-13 
       157   386.01633          73186   477            588            816            123            71182          9.872603e-13 
       158   392.50734          73772   477            589            813            126            71767          9.8909192e-13
       159   399.13234          74365   477            589            810            130            72359          9.9108064e-13
       160   405.9966           74936   477            589            808            133            72929          9.9302888e-13
       161   412.73176          75535   477            592            807            134            73525          9.9506021e-13
       162   419.57752          76122   478            593            804            137            74110          9.9701656e-13
       163   426.49908          76704   479            594            800            142            74689          9.990315e-13 
       164   433.54037          77287   480            594            799            144            75270          1.0010238e-12
       165   440.61925          77895   481            595            799            145            75875          1.0030982e-12
       166   447.80489          78459   481            597            799            146            76436          1.0050719e-12
       167   455.06297          79072   481            597            798            147            77049          1.0070314e-12
       168   462.39906          79644   481            597            796            149            77621          1.0089281e-12
       169   469.798            80227   481            601            792            153            78200          1.0108311e-12
       170   477.47177          80805   482            601            789            157            78776          1.0127523e-12
       171   485.05136          81412   484            602            787            159            79380          1.0146999e-12
       172   492.71672          81997   485            602            785            161            79964          1.0165789e-12
       173   500.46396          82598   485            603            782            165            80563          1.0185119e-12
       174   508.31231          83173   485            603            777            171            81137          1.0203434e-12
       175   516.24473          83774   486            603            777            171            81737          1.022284e-12 
       176   524.25693          84348   486            603            772            176            82311          1.0241151e-12
       177   532.35397          84946   487            605            771            177            82906          1.0261749e-12
       178   540.55144          85533   487            606            771            178            83491          1.0281241e-12
       179   548.83321          86138   487            606            770            179            84096          1.0301708e-12
       180   557.36506          86713   487            609            769            180            84668          1.0320451e-12
       181   565.79254          87320   488            610            768            182            85272          1.0340898e-12
       182   574.30237          87900   488            612            766            184            85850          1.0360148e-12
       183   582.90747          88503   489            612            765            185            86452          1.0380764e-12
       184   591.59412          89097   489            613            763            187            87045          1.0400353e-12
       185   600.37414          89690   490            613            760            190            87637          1.042014e-12 
       186   609.22585          90280   490            614            761            190            88225          1.0439713e-12
       187   618.15836          90883   491            615            762            192            88823          1.0459548e-12
       188   627.18954          91484   491            617            760            194            89422          1.0480209e-12
       189   636.28115          92073   491            618            757            197            90010          1.0499057e-12
       190   645.70183          92664   491            619            756            198            90600          1.0519539e-12
       191   654.9654           93267   491            620            755            199            91202          1.054026e-12 
       192   664.32863          93854   491            621            755            199            91788          1.0561143e-12
       193   673.79908          94463   491            621            754            200            92397          1.0581841e-12
       194   683.32181          95071   493            621            752            202            93003          1.0602444e-12
       195   692.96178          95653   493            621            749            205            93585          1.0622689e-12
       196   702.70115          96251   494            622            749            206            94180          1.0643744e-12
       197   712.5631           96859   494            622            747            208            94788          1.0665666e-12
       198   722.51128          97465   495            622            746            209            95393          1.068651e-12 
       199   732.53966          98044   495            623            743            213            95970          1.0706733e-12
       200   742.88922          98655   496            623            740            217            96579          1.0728302e-12
       201   753.11494          99244   496            624            739            218            97167          1.0748462e-12
       202   763.411            99870   496            624            734            223            97793          1.0770255e-12
       203   773.84384         100456   496            625            730            228            98377          1.0791975e-12
       204   784.30554         101065   496            625            725            233            98986          1.0814876e-12
       205   794.77113         101669   496            625            724            235            99589          1.0836257e-12
       206   805.31561         102275   496            626            720            239            100194         1.085811e-12 
       207   815.92666         102850   497            628            720            240            100765         1.0878959e-12
       208   826.6448          103492   497            628            720            240            101407         1.090333e-12 
       209   837.45684         104049   497            630            717            243            101962         1.092297e-12 
       210   848.59493         104697   497            631            715            246            102608         1.094725e-12 
       211   859.58607         105274   499            631            715            247            103182         1.0968056e-12
       212   870.67419         105900   499            632            715            247            103807         1.0991023e-12
       213   881.85915         106499   500            632            712            250            104405         1.1013642e-12
       214   893.14712         107107   501            632            712            250            105012         1.1036238e-12
       215   904.55464         107730   502            632            709            253            105634         1.1059324e-12
       216   916.04074         108340   502            631            708            255            106244         1.1082128e-12
       217   927.60111         108941   502            631            709            255            106844         1.1104498e-12
       218   939.2428          109555   502            633            705            259            107456         1.1126916e-12
       219   950.97009         110160   502            634            705            260            108059         1.1148763e-12
       220   963.04476         110764   502            634            703            262            108663         1.1170307e-12
       221   974.99462         111376   502            634            702            264            109274         1.11936e-12  
       222   987.01026         111979   502            636            701            265            109875         1.1215794e-12
       223   999.13383         112583   502            636            695            271            110479         1.1237915e-12
       224   1011.355          113203   502            636            693            274            111098         1.1263283e-12
       225   1023.6891         113807   502            636            689            278            111702         1.1288332e-12
       226   1036.164          114423   503            637            689            281            112313         1.1315998e-12
       227   1048.7071         115010   503            638            691            283            112895         1.1343923e-12
       228   1061.4387         115640   503            639            690            286            113522         1.1375498e-12
       229   1074.2091         116229   503            640            686            292            114108         1.1408674e-12
       230   1087.3579         116836   503            640            688            294            114711         1.1444922e-12
       231   1100.354          117440   503            641            690            301            115305         1.1482278e-12
       232   1113.4791         118033   503            642            693            304            115891         1.1523097e-12
       233   1126.6714         118660   503            644            696            308            116509         1.1566871e-12
       234   1139.9576         119228   503            644            702            313            117066         1.1611604e-12
       235   1153.3706         119849   503            646            706            316            117678         1.1660008e-12
       236   1166.8409         120442   503            647            715            319            118258         1.1711721e-12
       237   1180.3791         121040   503            649            724            322            118842         1.1766914e-12
       238   1193.9926         121622   503            652            731            328            119408         1.182376e-12 
       239   1207.7994         122228   503            654            741            331            119999         1.1884038e-12
       240   1221.9869         122798   503            656            746            336            120557         1.1948085e-12
       241   1236.018          123398   504            657            758            339            121140         1.2014605e-12
       242   1250.0989         123954   504            660            764            344            121682         1.2083814e-12
       243   1264.265          124558   504            662            786            347            122259         1.2156108e-12
       244   1278.5407         125123   505            662            798            352            122806         1.2231323e-12
       245   1292.9129         125676   505            664            811            353            123343         1.2303279e-12
       246   1307.4269         126266   508            668            829            359            123902         1.2377718e-12
       247   1322.0206         126799   511            670            838            365            124415         1.244653e-12 
       248   1336.6763         127341   513            675            843            374            124936         1.2514653e-12
       249   1351.5082         127876   517            678            851            382            125448         1.2579796e-12
       250   1366.6274         128407   521            682            853            390            125961         1.2635944e-12
       251   1381.6128         128915   525            685            858            394            126453         1.2689717e-12
       252   1396.8012         129477   530            692            858            401            126996         1.2740508e-12
       253   1411.9232         130022   531            692            849            415            127535         1.2781711e-12
       254   1427.1406         130560   533            695            848            426            128058         1.2819346e-12
       255   1442.4367         131134   535            697            848            435            128619         1.2853515e-12
       256   1457.6971         131721   540            698            845            441            129197         1.2888005e-12
       257   1472.9998         132328   543            703            839            448            129795         1.2916791e-12
       258   1488.4418         132955   548            705            837            450            130415         1.2945154e-12
       259   1503.9566         133609   547            709            833            455            131065         1.2971469e-12
       260   1519.9402         134285   549            711            829            460            131736         1.299527e-12 
       261   1535.6928         134926   551            711            826            464            132374         1.3015088e-12
       262   1551.6592         135649   552            713            822            468            133094         1.3037339e-12
       263   1567.6813         136328   554            713            819            471            133771         1.30578e-12  
       264   1583.839          137053   554            712            812            479            134496         1.3079605e-12
       265   1600.0739         137747   554            712            810            482            135189         1.3100456e-12
       266   1616.4265         138474   556            714            807            485            135912         1.312348e-12 
       267   1632.9564         139172   556            714            799            493            136610         1.3143971e-12
       268   1649.577          139897   556            714            793            501            137333         1.3167738e-12
       269   1666.3259         140591   555            715            788            507            138026         1.3189158e-12
       270   1683.4542         141349   555            714            783            513            138784         1.3214072e-12
       271   1700.3374         142002   555            714            779            518            139436         1.3233062e-12
       272   1717.6041         142777   556            714            772            527            140208         1.3258338e-12
       273   1734.9136         143456   556            714            763            536            140887         1.3279051e-12
       274   1752.3183         144161   556            714            761            538            141592         1.3301353e-12
       275   1769.8153         144884   556            715            759            540            142314         1.3323546e-12
       276   1787.4415         145573   555            715            755            545            143003         1.3345834e-12
       277   1805.1979         146295   556            716            754            546            143723         1.3368497e-12
       278   1823.0186         147009   556            716            752            548            144437         1.3391262e-12
       279   1840.9729         147713   556            716            748            554            145139         1.3413512e-12
       280   1859.4347         148427   558            717            746            556            145850         1.3435601e-12
       281   1877.6846         149149   559            719            743            559            146569         1.3458139e-12
       282   1896.0131         149853   559            720            739            563            147272         1.3480744e-12
       283   1914.5239         150574   558            721            738            565            147992         1.3504807e-12
       284   1933.1458         151259   557            721            731            573            148677         1.3528135e-12
       285   1951.9503         151987   557            721            728            577            149404         1.3552432e-12
       286   1970.8361         152680   557            722            725            580            150096         1.3575401e-12
       287   1989.8571         153409   557            722            722            583            150825         1.359983e-12 
       288   2009.0379         154095   557            721            717            590            151510         1.362225e-12 
       289   2028.3271         154821   558            722            714            593            152234         1.3646728e-12
       290   2048.1234         155515   560            722            713            594            152926         1.3669767e-12
       291   2067.6366         156210   560            722            710            597            153621         1.3692837e-12
       292   2087.3877         156915   560            722            706            601            154326         1.3715976e-12
       293   2107.2202         157634   559            722            706            603            155044         1.3740592e-12
       294   2127.1565         158332   559            722            702            607            155742         1.3763886e-12
       295   2147.1922         159035   559            721            700            610            156445         1.3787425e-12
       296   2167.3739         159748   559            721            699            612            157157         1.3811546e-12
       297   2187.6545         160437   560            721            698            613            157845         1.3835217e-12
       298   2208.1106         161148   561            722            698            613            158554         1.3859043e-12
       299   2228.7152         161836   561            721            696            616            159242         1.3882663e-12
       300   2249.8972         162558   561            720            694            621            159962         1.3905797e-12
Loop time of 2249.9 on 16 procs for 300 steps with 162558 atoms

97.5% CPU use with 16 MPI tasks x 1 OpenMP threads

MPI task timing breakdown:
Section |  min time  |  avg time  |  max time  |%varavg| %total
---------------------------------------------------------------
Pair    | 655.39     | 722.18     | 779.19     | 117.0 | 32.10
Neigh   | 682.4      | 743.79     | 818.21     | 126.0 | 33.06
Comm    | 204.32     | 207.96     | 212.9      |  17.4 |  9.24
Output  | 35.05      | 35.05      | 35.051     |   0.0 |  1.56
Modify  | 406.11     | 533.77     | 658.81     | 271.3 | 23.72
Other   |            | 7.149      |            |       |  0.32

Nlocal:        10159.9 ave       10647 max        9871 min
Histogram: 3 3 1 3 2 1 1 0 1 1
Nghost:        7813.19 ave        8179 max        7545 min
Histogram: 2 0 4 4 1 2 0 0 1 2
Neighs:         123965 ave      133863 max      118121 min
Histogram: 3 2 1 3 3 1 1 1 0 1

Total # of neighbors = 1983436
Ave neighs/atom = 12.201405
Neighbor list builds = 26443
Dangerous builds = 26143

Total wall time: 0:38:01
