LAMMPS (23 Jun 2022 - Update 4)
  using 1 OpenMP thread(s) per MPI task
package omp 0
using multi-threaded neighbor list subroutines
#-----------------------------------------------------------------------------#
#                NUFEB Simulation: Heterotrophic Biofilm Growth               #
#-----------------------------------------------------------------------------#


#-----------------------------System Settings---------------------------------#

units si                                    # using si units (m, s, kg)
atom_style      coccus                      # using nufeb coccus atom style
atom_modify     map array sort 10 0         # map array - find atoms using indices
		                            # sort every 10

boundary        pp pp ff                    # periodic boundaries in x and y
                                            # fixed boundary in z

newton          off                         # forces between local and ghost
                                            # atoms are computed in each
					     # processor without communication

processors      * * 1                       # processor grid

comm_modify     vel yes                     # communicate velocities for ghost atoms

read_data       atom_ch.in	             # read atom.in file which defines domain size
Reading data file ...
  orthogonal box = (0 0 0) to (6e-05 6e-05 6e-05)
  4 by 4 by 1 MPI processor grid
  reading atoms ...
  150 atoms
  read_data CPU = 0.027 seconds
                                            # and initial atoms


#--------------------Microbes and Functional Groups-------------------------#

group           CROSS1   type 1               # assign type 1,2 atoms to CROSS group
50 atoms in group CROSS1
group           CROSS2   type 2
50 atoms in group CROSS2
group		CHEATER  type 3
50 atoms in group CHEATER
group           dead     type 4
0 atoms in group dead
group		EPS	 type 5
0 atoms in group EPS

neighbor        5e-7 bin                   # setting neighbour skin distance and style

neigh_modify    check yes                  # rebuild neighbour list if any atom
                                           # had moved more than half the skin distance


#--------------------------Mesh Grid and Substrates--------------------------#

# defining grid sytle, substrate names, and grid size
grid_style      nufeb/chemostat 3 sub metab1 metab2 5e-6

# set diffusion boundary conditions and initial concentrations (liquid:kg/m3)
grid_modify     set sub      pp pp nd  1.8e-4
No /omp style for force computation currently active
grid_modify     set metab1   pp pp nd  1e-4
No /omp style for force computation currently active
grid_modify     set metab2   pp pp nd  1e-4
No /omp style for force computation currently active


#--------------------------Biological Processes-------------------------------#

# heterotrophs growth
fix growth_cross1 CROSS1 nufeb/growth/cross1 sub 3.5e-5 metab2 4e-3 metab1 growth 0.009 yield 0.6 decay 2.6e-6 metab1_exp 20 epsyield 0.12 epsdens 30

fix growth_cross2 CROSS2 nufeb/growth/cross2 sub 3.5e-5 metab1 4e-3 metab2 growth 0.009 yield 0.6 decay 2.6e-6 metab2_exp 20 epsyield 0.12 epsdens 30

fix growth_cheater CHEATER nufeb/growth/cheater sub 3.5e-5 metab1 1e-3 metab2 1e-3 growth 0.009 yield 0.6 decay 2.6e-6 epsyield 0.12 epsdens 30

# heterotrophs division, division diameter: 1.36e-6
fix div1 CROSS1 nufeb/division/coccus 1.36e-6 203
fix div2 CROSS2 nufeb/division/coccus 1.36e-6 506
fix div3 CHEATER nufeb/division/coccus 1.36e-6 1009

fix death1 CROSS1 nufeb/death/diameter dead 5.43e-7
fix death2 CROSS2 nufeb/death/diameter dead 5.43e-7
fix death3 CHEATER nufeb/death/diameter dead 5.43e-7

# EPS secretion from heterotrophs
fix eps1 CROSS1 nufeb/eps_secretion 5 EPS 1.1 30 1712
fix eps2 CROSS2 nufeb/eps_secretion 5 EPS 1.1 30 2615
fix eps3 CROSS2 nufeb/eps_secretion 5 EPS 1.1 30 3718
#---------------------------Physical Processes--------------------------------#

pair_style  gran/hooke/history 1e-4 NULL 1e-5 NULL 0.0 0    # pairwise interaction
pair_coeff  * *                                             # between atoms

# pairwise interaction between z-wall and atoms
fix wall all wall/gran hooke/history 1e-3 NULL 1e-4 NULL 0 0 zplane 0.0 1e-04

fix vis all viscous 1e-5                                    # viscous damping force

fix grav all gravity 9.81 vector 0.0 0.0 -1.0

fix nve all nve/limit 1e-7                                  # NVE integration with
                                                            # maximum distance limit


#---------------------------Post-Physical Processes---------------------------#

fix coeff_sub all nufeb/diffusion_coeff sub ratio 0.8       # defining diffusion coeff in the biofilm
fix coeff_metab1 all nufeb/diffusion_coeff metab1 ratio 0.8    # region is 80% of the value in liquid
fix coeff_metab2 all nufeb/diffusion_coeff metab2 ratio 0.8

#---------------------------Chemical Processes---------------------------------#

fix diff_sub all nufeb/diffusion_reaction sub 1e-9        # diffusion reaction for updating
fix diff_metab1 all nufeb/diffusion_reaction metab1 4e-9     # distribusion of substrate concentration
fix diff_metab2 all nufeb/diffusion_reaction metab2 4e-9

#--------------------------Computations and Outputs----------------------------#

variable mass equal "mass(all)"                             # total mass
variable ncross1 equal "count(CROSS1)"                      # total # of CROSS1
variable ncross2 equal "count(CROSS2)"                      # total # of CROSS2
variable ncheater equal "count(CHEATER)"
variable ndead equal "count(dead)"
variable neps equal "count(EPS)"

shell mkdir vtk_CHEPS_ch                                            # dump vtk files to /vtk folder
dump du1 all vtk 10 vtk_CHEPS_ch/dump*.vtu id type diameter         # require build NUFEB with vtk option
dump du2 all grid/vtk 10 vtk_CHEPS_ch/dump_%_*.vti con rea den gro

#dump du3 all movie 10 movie.avi type diameter view 80 60    # dump video
#dump_modify du3 acolor 1 blue acolor 2 lightgrey framerate 10


                                                            # dump hdf5 files to /hdf5 folder
#shell mkdir hdf5                                           # require build NUFEB with hdf5 option
#dump du3 all nufeb/hdf5 10 dump.h5 id type x y z vx vy vz fx fy fz radius conc reac

thermo_style custom step cpu atoms v_ncross1 v_ncross2 v_ncheater v_ndead v_neps v_mass     # screen and log outputs
thermo 1
thermo_modify   lost ignore

#-----------------------------------Run----------------------------------------#

# issue run command, define timesteps for physical (pairdt) and chemical (diffdt) processes
run_style nufeb diffdt 1e-4 difftol 1e-6 pairdt 1e-2 pairtol 1 pairmax 1000 diffmax 5000

timestep 12000                                               # define biological timesteps (1000s)

run 300                                                    # growing biofilm for 900x1000s
Generated 0 of 6 mixed pair_coeff terms from geometric mixing rule
Last active /omp style is pair_style gran/hooke/history/omp
Neighbor list info ...
  update every 1 steps, delay 10 steps, check yes
  max neighbors/atom: 2000, page size: 100000
  master list distance cutoff = 2.49e-06
  ghost atom cutoff = 2.49e-06
  binsize = 1.245e-06, bins = 49 49 49
  1 neighbor lists, perpetual/occasional/extra = 1 0 0
  (1) pair gran/hooke/history/omp, perpetual
      attributes: half, newton off, size, history, omp
      pair build: half/size/bin/newtoff/omp
      stencil: full/bin/3d
      bin: standard
Per MPI rank memory allocation (min/avg/max) = 11.02 | 11.02 | 11.02 Mbytes
   Step          CPU          Atoms      v_ncross1      v_ncross2      v_ncheater      v_ndead         v_neps         v_mass    
         0   0                    150   50             50             50             0              0              1.3295396e-13
         1   0.38350393           487   90             85             83             0              229            1.6440417e-13
         2   0.74995432           901   121            124            123            0              533            1.8171177e-13
         3   1.0431853           1244   129            148            136            0              831            1.9587722e-13
         4   1.3220314           1584   137            158            143            0              1146           2.089232e-13 
         5   1.4792456           1916   143            163            152            0              1458           2.214262e-13 
         6   1.6331729           2263   152            173            158            0              1780           2.3363027e-13
         7   1.7791842           2599   155            174            165            0              2105           2.4558669e-13
         8   1.9095111           2960   167            186            168            0              2439           2.5724022e-13
         9   2.0276317           3326   172            197            170            0              2787           2.687077e-13 
        10   2.1827715           3702   178            202            176            0              3146           2.7987187e-13
        11   2.3042903           4096   184            211            189            0              3512           2.9085622e-13
        12   2.455472            4484   192            219            193            0              3880           3.0152638e-13
        13   2.553007            4877   197            222            201            0              4257           3.12097e-13  
        14   2.6593424           5267   201            229            205            0              4632           3.2245104e-13
        15   2.7897366           5670   206            236            211            0              5017           3.3274083e-13
        16   2.9010543           6082   213            241            221            0              5407           3.4285852e-13
        17   3.0006657           6498   220            246            228            0              5804           3.5272538e-13
        18   3.1013519           6920   227            249            237            0              6207           3.6244094e-13
        19   3.2450576           7326   231            253            243            0              6599           3.719409e-13 
        20   3.4075517           7727   237            259            250            0              6981           3.8114432e-13
        21   3.5337815           8142   242            267            256            0              7377           3.9020027e-13
        22   3.6238265           8548   246            272            261            0              7769           3.9908067e-13
        23   3.7191959           8964   250            276            270            0              8168           4.0782182e-13
        24   3.8025428           9383   255            278            276            0              8574           4.1636097e-13
        25   3.909852            9785   260            280            285            0              8960           4.2467648e-13
        26   3.9941399          10187   264            286            292            0              9345           4.3286759e-13
        27   4.0625759          10607   271            289            299            0              9748           4.4098183e-13
        28   4.1768898          11033   275            293            302            0              10163          4.4895253e-13
        29   4.271622           11451   277            301            307            0              10566          4.5651425e-13
        30   18.796463          11873   281            303            313            0              10976          4.6404307e-13
        31   18.914693          12290   285            306            319            0              11380          4.7135978e-13
        32   19.015979          12723   288            311            325            0              11799          4.7852787e-13
        33   19.197258          13125   290            316            329            0              12190          4.8552342e-13
        34   19.3657            13574   294            320            334            0              12626          4.9262317e-13
        35   19.558541          13983   298            323            341            0              13021          4.9931685e-13
        36   19.964427          14422   302            327            348            0              13445          5.0600673e-13
        37   20.465209          14847   305            327            352            0              13863          5.1214942e-13
        38   20.971592          15273   306            332            355            0              14280          5.1799294e-13
        39   21.47957           15702   311            335            357            0              14699          5.2375433e-13
        40   41.250288          16130   312            336            361            0              15121          5.2958236e-13
        41   42.116674          16556   315            337            363            0              15541          5.3513308e-13
        42   42.980141          16982   317            341            363            0              15961          5.4067419e-13
        43   43.849371          17413   323            341            369            0              16380          5.4602061e-13
        44   44.791091          17840   326            347            372            0              16795          5.513308e-13 
        45   45.722784          18277   328            349            378            0              17222          5.5641561e-13
        46   46.654516          18697   331            350            382            0              17634          5.6120489e-13
        47   47.636811          19155   338            352            384            0              18081          5.6611697e-13
        48   48.597169          19589   341            356            387            0              18505          5.7077612e-13
        49   49.589256          20033   344            362            389            0              18938          5.7543332e-13
        50   50.649378          20465   346            364            390            0              19365          5.7993506e-13
        51   51.7046            20923   350            366            394            0              19813          5.8455019e-13
        52   52.756737          21359   355            370            396            0              20238          5.8891569e-13
        53   53.851585          21818   357            370            400            0              20691          5.9334883e-13
        54   54.972032          22240   360            371            406            0              21103          5.9751674e-13
        55   56.11839           22708   364            372            408            0              21564          6.0177193e-13
        56   57.274486          23164   365            376            410            0              22013          6.0585196e-13
        57   58.435722          23592   366            376            410            0              22440          6.0969249e-13
        58   59.648143          24048   369            377            413            0              22889          6.1363224e-13
        59   60.910406          24486   370            378            415            0              23323          6.1729933e-13
        60   62.244712          24933   373            378            420            0              23762          6.2107014e-13
        61   63.560462          25395   374            382            424            0              24215          6.2478545e-13
        62   64.869994          25835   377            385            425            0              24648          6.2816792e-13
        63   66.199605          26297   378            386            426            0              25107          6.3168572e-13
        64   67.544328          26740   380            389            429            0              25542          6.3503621e-13
        65   68.91691           27211   384            390            430            0              26007          6.3849115e-13
        66   70.325129          27668   385            393            430            0              26460          6.4178256e-13
        67   71.75415           28125   387            394            430            0              26914          6.4507407e-13
        68   73.23528           28587   391            396            431            0              27369          6.4825069e-13
        69   74.728961          29042   391            399            433            0              27819          6.5136626e-13
        70   76.33727           29516   391            399            435            0              28291          6.5451282e-13
        71   77.899003          29967   392            401            437            0              28737          6.5754094e-13
        72   79.488949          30455   395            403            438            0              29219          6.6069042e-13
        73   81.110681          30902   399            406            440            0              29657          6.6358132e-13
        74   82.773053          31390   399            407            444            0              30140          6.6673113e-13
        75   84.46605           31838   399            408            445            0              30586          6.6967755e-13
        76   86.204565          32323   402            411            447            0              31063          6.7272554e-13
        77   88.002872          32781   403            413            448            0              31517          6.756287e-13 
        78   89.827882          33257   407            415            449            0              31986          6.7854269e-13
        79   91.679946          33740   409            415            451            0              32465          6.8150555e-13
        80   93.691549          34210   410            417            452            0              32931          6.8444828e-13
        81   95.660213          34685   413            418            455            0              33399          6.8740515e-13
        82   97.711367          35175   414            421            459            0              33881          6.9060018e-13
        83   99.772845          35648   415            421            465            0              34347          6.9383601e-13
        84   101.82617          36115   416            422            468            0              34809          6.9701627e-13
        85   103.94176          36599   419            424            470            0              35286          7.0045469e-13
        86   106.16801          37079   419            425            471            0              35764          7.0370748e-13
        87   108.35584          37548   420            428            477            0              36223          7.0700405e-13
        88   110.62246          38030   420            430            482            0              36698          7.1030747e-13
        89   112.95248          38494   420            431            485            0              37158          7.1372661e-13
        90   115.41638          38989   422            435            490            0              37642          7.1749673e-13
        91   117.78364          39445   423            436            495            0              38091          7.2128512e-13
        92   120.2362           39932   424            437            502            0              38569          7.2527824e-13
        93   122.75668          40388   425            440            506            0              39017          7.2923514e-13
        94   125.35652          40867   426            441            514            0              39486          7.335065e-13 
        95   127.94891          41353   427            446            521            0              39959          7.3820944e-13
        96   130.59296          41789   427            447            531            0              40384          7.4291861e-13
        97   133.2747           42273   428            449            541            0              40855          7.4777871e-13
        98   135.90728          42706   429            454            549            0              41274          7.5258724e-13
        99   138.64736          43194   430            456            559            0              41749          7.5768361e-13
       100   141.56878          43659   431            458            574            0              42196          7.6291057e-13
       101   144.41992          44110   433            465            583            0              42629          7.6815735e-13
       102   147.33381          44596   435            467            591            0              43103          7.7351878e-13
       103   150.25886          45049   436            471            603            1              43538          7.7898121e-13
       104   153.21078          45527   438            472            614            2              44001          7.8454821e-13
       105   156.25661          45972   440            476            624            2              44430          7.9004829e-13
       106   159.28125          46443   441            476            636            2              44888          7.9538567e-13
       107   162.41071          46894   446            480            647            3              45318          8.006945e-13 
       108   165.61629          47366   448            488            656            3              45771          8.0612991e-13
       109   168.78393          47812   450            489            662            3              46208          8.1152966e-13
       110   172.13076          48278   451            496            674            3              46654          8.1694897e-13
       111   175.44126          48736   456            500            680            3              47097          8.2205905e-13
       112   178.83576          49203   460            503            688            5              47547          8.2690936e-13
       113   182.27002          49680   463            508            690            5              48014          8.317995e-13 
       114   185.68588          50138   468            510            698            5              48457          8.3655666e-13
       115   189.22366          50626   472            513            708            5              48928          8.4148257e-13
       116   192.90112          51107   474            518            714            5              49396          8.4617868e-13
       117   196.547            51592   482            520            724            7              49859          8.5048603e-13
       118   200.28665          52073   486            527            727            9              50324          8.5474081e-13
       119   204.0054           52570   488            529            729            11             50813          8.5852123e-13
       120   208.02004          53069   491            530            729            14             51305          8.6198536e-13
       121   211.88171          53581   497            531            725            20             51808          8.6551213e-13
       122   215.74994          54084   499            534            727            22             52302          8.6865474e-13
       123   219.69285          54607   501            538            727            27             52814          8.7168981e-13
       124   223.71899          55140   503            540            726            29             53342          8.7454342e-13
       125   227.81916          55695   504            542            727            30             53892          8.7716642e-13
       126   231.91296          56270   508            542            720            37             54463          8.7959997e-13
       127   236.054            56845   510            549            720            38             55028          8.8189652e-13
       128   240.23786          57397   511            549            717            42             55578          8.8400213e-13
       129   244.5199           58003   512            550            715            45             56181          8.8609662e-13
       130   249.00187          58597   513            551            714            47             56772          8.8801172e-13
       131   253.44225          59191   513            553            712            49             57364          8.8992337e-13
       132   257.923            59795   514            555            711            51             57964          8.9187836e-13
       133   262.47659          60420   516            555            708            54             58587          8.9385796e-13
       134   267.10814          61007   517            556            706            56             59172          8.9568132e-13
       135   271.84263          61641   518            556            707            57             59803          8.9775204e-13
       136   276.66691          62223   518            557            706            58             60384          8.9950957e-13
       137   281.52759          62845   521            558            701            64             61001          9.015406e-13 
       138   286.47218          63446   522            558            698            67             61601          9.0342985e-13
       139   291.48173          64031   522            558            697            68             62186          9.053322e-13 
       140   296.73955          64639   522            559            696            70             62792          9.0728159e-13
       141   301.97955          65254   524            560            695            71             63404          9.0928905e-13
       142   307.32349          65839   525            560            694            73             63987          9.1125648e-13
       143   312.701            66446   525            560            689            79             64593          9.1327487e-13
       144   318.16122          67045   526            561            686            82             65190          9.1527329e-13
       145   323.71448          67628   526            562            681            87             65772          9.1723105e-13
       146   329.34276          68251   526            565            677            91             66392          9.1936425e-13
       147   335.05726          68838   527            566            677            93             66975          9.2132618e-13
       148   340.85183          69440   529            567            676            96             67572          9.2335972e-13
       149   346.77756          70062   532            570            673            99             68188          9.2545736e-13
       150   352.97624          70643   532            570            673            100            68768          9.2740042e-13
       151   359.00612          71268   533            571            668            105            69391          9.2943361e-13
       152   365.1172           71857   535            571            665            109            69977          9.3135601e-13
       153   371.30166          72480   535            571            662            112            70600          9.3350379e-13
       154   377.5843           73046   536            572            659            116            71163          9.3536909e-13
       155   383.95992          73674   537            572            657            118            71790          9.3751066e-13
       156   390.39572          74267   537            572            655            120            72383          9.3949208e-13
       157   396.92508          74879   537            574            655            121            72992          9.415614e-13 
       158   403.52954          75499   538            574            654            122            73611          9.4367064e-13
       159   410.24384          76082   538            574            652            124            74194          9.4559066e-13
       160   417.21178          76704   539            576            652            124            74813          9.4773037e-13
       161   424.07325          77301   542            578            650            126            75405          9.4962591e-13
       162   431.01597          77929   543            578            648            128            76032          9.51781e-13  
       163   438.00368          78527   543            578            645            131            76630          9.5376483e-13
       164   445.07118          79144   544            579            638            138            77245          9.5581937e-13
       165   452.26557          79753   544            580            633            143            77853          9.5786586e-13
       166   459.49745          80368   548            580            633            143            78464          9.5994982e-13
       167   466.80075          80969   548            580            630            147            79064          9.6197977e-13
       168   474.22107          81582   548            581            630            148            79675          9.6413529e-13
       169   481.69407          82180   548            582            627            151            80272          9.6617848e-13
       170   489.45765          82806   549            582            626            152            80897          9.6836822e-13
       171   497.10071          83398   549            583            623            155            81488          9.7035275e-13
       172   504.82339          84018   550            583            621            157            82107          9.7253261e-13
       173   512.65049          84619   551            583            619            160            82706          9.7453823e-13
       174   520.57911          85265   552            586            616            163            83348          9.7688178e-13
       175   528.55278          85843   552            589            612            167            83923          9.7885629e-13
       176   536.62058          86480   552            589            611            169            84559          9.811882e-13 
       177   544.76607          87099   553            590            608            173            85175          9.8345817e-13
       178   552.97543          87710   553            590            604            177            85786          9.8563916e-13
       179   561.28631          88333   553            590            600            181            86409          9.8785003e-13
       180   569.90493          88935   553            590            596            185            87011          9.9000374e-13
       181   578.38783          89557   554            591            595            186            87631          9.9222369e-13
       182   586.97045          90185   554            591            591            191            88258          9.9455444e-13
       183   595.60672          90774   554            591            588            194            88847          9.9674273e-13
       184   604.36058          91398   554            591            586            197            89470          9.9912651e-13
       185   613.20282          92017   557            593            584            199            90084          1.0014082e-12
       186   622.13898          92632   559            593            583            202            90695          1.0037261e-12
       187   631.11959          93268   559            594            579            206            91330          1.0060874e-12
       188   640.21469          93862   560            596            577            208            91921          1.0083205e-12
       189   649.39452          94495   561            597            575            211            92551          1.0107285e-12
       190   658.89157          95100   561            597            568            218            93156          1.0130222e-12
       191   668.21686          95731   561            597            567            219            93787          1.0154005e-12
       192   677.70838          96339   562            597            564            222            94394          1.0177548e-12
       193   687.23322          96974   563            599            563            223            95026          1.0201386e-12
       194   696.87078          97593   563            601            558            228            95643          1.0224825e-12
       195   706.60332          98216   563            601            555            232            96265          1.0248539e-12
       196   716.40764          98853   564            602            553            236            96898          1.0272666e-12
       197   726.3146           99461   565            602            549            240            97505          1.0295675e-12
       198   736.32494         100078   565            603            543            246            98121          1.0319103e-12
       199   746.41614         100702   565            604            542            247            98744          1.0341781e-12
       200   756.85963         101320   565            604            540            249            99362          1.0365532e-12
       201   767.12502         101945   567            604            539            251            99984          1.0388231e-12
       202   777.48709         102592   567            604            535            256            100630         1.0412677e-12
       203   787.94496         103192   568            604            531            260            101229         1.043493e-12 
       204   798.52786         103850   569            605            527            264            101885         1.0459662e-12
       205   809.17678         104448   569            605            524            267            102483         1.0482128e-12
       206   819.9164          105095   570            606            523            269            103127         1.050718e-12 
       207   830.75453         105717   570            606            522            271            103748         1.05307e-12  
       208   841.683           106333   571            606            518            275            104363         1.055433e-12 
       209   852.71364         106964   571            607            515            278            104993         1.0578511e-12
       210   864.07259         107594   572            608            510            283            105621         1.0601919e-12
       211   875.27243         108221   572            608            506            287            106248         1.0626181e-12
       212   886.57873         108848   573            609            502            292            106872         1.0650021e-12
       213   897.968           109489   573            609            498            296            107513         1.0675091e-12
       214   909.44954         110109   573            609            497            298            108132         1.0699954e-12
       215   921.02982         110741   574            610            498            299            108760         1.0725689e-12
       216   932.70728         111385   574            611            494            303            109403         1.075093e-12 
       217   944.47895         112021   576            612            492            306            110035         1.0776086e-12
       218   956.39427         112642   577            612            490            308            110655         1.0801263e-12
       219   968.36452         113270   577            614            484            314            111281         1.0826584e-12
       220   980.75082         113912   578            614            478            321            111921         1.0853332e-12
       221   992.90961         114550   580            615            475            325            112555         1.0879392e-12
       222   1005.1662         115181   581            615            471            329            113185         1.0906123e-12
       223   1017.5319         115828   583            617            471            331            113826         1.0932786e-12
       224   1030.0067         116477   583            617            469            336            114472         1.0962365e-12
       225   1042.5784         117097   583            618            466            339            115091         1.0991558e-12
       226   1055.2932         117741   583            618            466            340            115734         1.1023454e-12
       227   1068.0983         118363   583            618            468            344            116350         1.1057744e-12
       228   1081.0569         119007   585            618            468            348            116988         1.1093482e-12
       229   1094.1855         119638   587            618            467            352            117614         1.1131281e-12
       230   1107.6568         120266   587            617            469            358            118235         1.1172014e-12
       231   1120.9105         120899   588            617            470            362            118862         1.1215194e-12
       232   1134.3275         121504   589            617            478            363            119457         1.1259602e-12
       233   1147.8304         122138   591            617            477            370            120083         1.1308778e-12
       234   1161.42           122742   592            616            484            377            120673         1.1360874e-12
       235   1175.0844         123365   594            616            491            379            121285         1.141899e-12 
       236   1188.9436         123953   595            616            496            383            121863         1.1475988e-12
       237   1202.8817         124564   600            617            505            385            122457         1.153784e-12 
       238   1216.9399         125123   603            616            514            390            123000         1.1598937e-12
       239   1231.0741         125754   606            618            521            394            123615         1.1662569e-12
       240   1245.6103         126291   611            619            527            398            124136         1.1721879e-12
       241   1259.9854         126888   617            623            530            404            124714         1.1782391e-12
       242   1274.456          127415   619            627            532            410            125227         1.183863e-12 
       243   1289.0284         127943   626            627            535            416            125739         1.1894164e-12
       244   1303.6589         128484   628            635            540            420            126261         1.1946028e-12
       245   1318.3978         129022   632            643            540            423            126784         1.1995095e-12
       246   1333.2102         129584   641            643            539            433            127328         1.2041807e-12
       247   1348.0623         130127   645            647            540            442            127853         1.208355e-12 
       248   1363.0154         130742   648            649            542            448            128455         1.2123201e-12
       249   1377.9996         131326   650            652            535            457            129032         1.2161399e-12
       250   1393.271          131970   652            654            533            461            129670         1.2197563e-12
       251   1408.3695         132572   654            654            530            467            130267         1.2229286e-12
       252   1423.5127         133234   656            655            523            478            130922         1.2260676e-12
       253   1438.76           133941   658            659            520            482            131622         1.2292215e-12
       254   1454.1354         134622   661            660            512            492            132297         1.2321781e-12
       255   1469.6524         135331   663            660            507            499            133002         1.2351242e-12
       256   1485.3344         136059   662            659            503            507            133728         1.2380753e-12
       257   1501.1209         136779   662            658            499            513            134447         1.2410394e-12
       258   1517.0382         137510   662            658            493            519            135178         1.2439551e-12
       259   1533.0703         138251   662            657            489            524            135919         1.2469096e-12
       260   1549.5266         138995   662            657            483            530            136663         1.2498491e-12
       261   1565.7202         139737   662            657            482            532            137404         1.2528505e-12
       262   1582.0779         140466   662            657            482            532            138133         1.2557547e-12
       263   1598.5222         141209   662            657            477            537            138876         1.2587458e-12
       264   1615.075          141934   663            656            474            541            139600         1.2616658e-12
       265   1631.7788         142667   664            656            472            543            140332         1.2646109e-12
       266   1648.6648         143441   666            656            471            544            141104         1.2676788e-12
       267   1665.6623         144134   666            655            469            548            141796         1.2704282e-12
       268   1682.8409         144912   666            658            467            550            142571         1.273523e-12 
       269   1700.2058         145638   665            658            464            554            143297         1.2764209e-12
       270   1718.029          146378   664            659            464            555            144036         1.2793998e-12
       271   1735.6207         147099   664            660            459            560            144756         1.2822725e-12
       272   1753.357          147830   666            660            457            562            145485         1.2852398e-12
       273   1771.1835         148576   667            660            455            564            146230         1.2881818e-12
       274   1789.1384         149300   667            661            455            564            146953         1.2910808e-12
       275   1807.2719         150037   668            661            452            567            147689         1.2940271e-12
       276   1825.564          150761   667            661            451            569            148413         1.2969459e-12
       277   1843.9518         151492   668            661            450            570            149143         1.2997989e-12
       278   1862.5007         152240   668            662            447            574            149889         1.302794e-12 
       279   1881.1289         152947   669            662            447            574            150595         1.3055529e-12
       280   1900.2705         153684   670            660            447            576            151331         1.3084804e-12
       281   1919.1098         154404   670            660            446            577            152051         1.3113037e-12
       282   1938.1059         155163   670            660            445            578            152810         1.3143087e-12
       283   1957.2911         155870   670            660            443            580            153517         1.3171134e-12
       284   1976.5819         156605   670            662            441            582            154250         1.3200295e-12
       285   1996.0001         157325   670            662            439            584            154970         1.3229073e-12
       286   2015.6036         158052   670            663            438            585            155696         1.3258108e-12
       287   2035.2741         158777   670            663            437            586            156421         1.3286747e-12
       288   2055.0675         159502   670            663            436            587            157146         1.3315933e-12
       289   2075.0326         160242   670            662            435            589            157886         1.3345352e-12
       290   2095.4904         160948   669            662            433            592            158592         1.3373461e-12
       291   2115.7788         161686   670            665            432            593            159326         1.3402699e-12
       292   2136.2405         162394   669            666            430            596            160033         1.3430857e-12
       293   2156.8101         163130   669            667            428            598            160768         1.3460233e-12
       294   2177.5055         163864   670            666            429            600            161499         1.3488792e-12
       295   2198.3659         164591   670            667            425            604            162225         1.3518003e-12
       296   2219.396          165307   671            666            423            607            162940         1.3546139e-12
       297   2240.5276         166036   672            667            423            607            163667         1.357496e-12 
       298   2261.7644         166767   672            666            421            610            164398         1.3603398e-12
       299   2283.2035         167471   672            666            419            613            165101         1.3631344e-12
       300   2305.1849         168219   671            665            418            616            165849         1.3660138e-12
Loop time of 2305.19 on 16 procs for 300 steps with 168219 atoms

97.4% CPU use with 16 MPI tasks x 1 OpenMP threads

MPI task timing breakdown:
Section |  min time  |  avg time  |  max time  |%varavg| %total
---------------------------------------------------------------
Pair    | 680.21     | 754.85     | 795.95     | 123.0 | 32.75
Neigh   | 715.35     | 778.7      | 826.98     | 124.4 | 33.78
Comm    | 206.81     | 210.07     | 214.61     |  16.2 |  9.11
Output  | 38.862     | 38.862     | 38.862     |   0.0 |  1.69
Modify  | 427.22     | 515.6      | 655.98     | 296.8 | 22.37
Other   |            | 7.094      |            |       |  0.31

Nlocal:        10513.7 ave       10916 max       10061 min
Histogram: 1 0 4 1 2 1 3 1 1 2
Nghost:        8107.44 ave        8434 max        7830 min
Histogram: 2 0 2 1 6 2 1 0 1 1
Neighs:         129133 ave      136135 max      120325 min
Histogram: 1 0 2 3 2 0 2 3 1 2

Total # of neighbors = 2066133
Ave neighs/atom = 12.2824
Neighbor list builds = 26435
Dangerous builds = 26135

Total wall time: 0:38:53
