LAMMPS (23 Jun 2022 - Update 4)
  using 1 OpenMP thread(s) per MPI task
package omp 0
using multi-threaded neighbor list subroutines
#-----------------------------------------------------------------------------#
#                NUFEB Simulation: Heterotrophic Biofilm Growth               #
#-----------------------------------------------------------------------------#


#-----------------------------System Settings---------------------------------#

units si                                    # using si units (m, s, kg)
atom_style      coccus                      # using nufeb coccus atom style
atom_modify     map array sort 10 0         # map array - find atoms using indices
		                            # sort every 10

boundary        pp pp ff                    # periodic boundaries in x and y
                                            # fixed boundary in z

newton          off                         # forces between local and ghost
                                            # atoms are computed in each
					     # processor without communication

processors      * * 1                       # processor grid

comm_modify     vel yes                     # communicate velocities for ghost atoms

read_data       atom_ch.in	             # read atom.in file which defines domain size
Reading data file ...
  orthogonal box = (0 0 0) to (6e-05 6e-05 6e-05)
  4 by 4 by 1 MPI processor grid
  reading atoms ...
  150 atoms
  read_data CPU = 0.031 seconds
                                            # and initial atoms


#--------------------Microbes and Functional Groups-------------------------#

group           CROSS1   type 1               # assign type 1,2 atoms to CROSS group
50 atoms in group CROSS1
group           CROSS2   type 2
50 atoms in group CROSS2
group		CHEATER  type 3
50 atoms in group CHEATER
group           dead     type 4
0 atoms in group dead
group		EPS	 type 5
0 atoms in group EPS

neighbor        5e-7 bin                   # setting neighbour skin distance and style

neigh_modify    check yes                  # rebuild neighbour list if any atom
                                           # had moved more than half the skin distance


#--------------------------Mesh Grid and Substrates--------------------------#

# defining grid sytle, substrate names, and grid size
grid_style      nufeb/chemostat 3 sub metab1 metab2 5e-6

# set diffusion boundary conditions and initial concentrations (liquid:kg/m3)
grid_modify     set sub      pp pp nd  1.8e-4
No /omp style for force computation currently active
grid_modify     set metab1   pp pp nd  1e-4
No /omp style for force computation currently active
grid_modify     set metab2   pp pp nd  1e-4
No /omp style for force computation currently active


#--------------------------Biological Processes-------------------------------#

# heterotrophs growth
fix growth_cross1 CROSS1 nufeb/growth/cross1 sub 3.5e-5 metab2 4e-3 metab1 growth 0.009 yield 0.6 decay 2.6e-6 metab1_exp 20 epsyield 0.12 epsdens 30

fix growth_cross2 CROSS2 nufeb/growth/cross2 sub 3.5e-5 metab1 4e-3 metab2 growth 0.009 yield 0.6 decay 2.6e-6 metab2_exp 20 epsyield 0.12 epsdens 30

fix growth_cheater CHEATER nufeb/growth/cheater sub 3.5e-5 metab1 1e-3 metab2 1e-3 growth 0.009 yield 0.6 decay 2.6e-6 epsyield 0.12 epsdens 30

# heterotrophs division, division diameter: 1.36e-6
fix div1 CROSS1 nufeb/division/coccus 1.36e-6 272
fix div2 CROSS2 nufeb/division/coccus 1.36e-6 782
fix div3 CHEATER nufeb/division/coccus 1.36e-6 1630

fix death1 CROSS1 nufeb/death/diameter dead 5.43e-7
fix death2 CROSS2 nufeb/death/diameter dead 5.43e-7
fix death3 CHEATER nufeb/death/diameter dead 5.43e-7

# EPS secretion from heterotrophs
fix eps1 CROSS1 nufeb/eps_secretion 5 EPS 1.1 30 2816
fix eps2 CROSS2 nufeb/eps_secretion 5 EPS 1.1 30 4340
fix eps3 CROSS2 nufeb/eps_secretion 5 EPS 1.1 30 6202
#---------------------------Physical Processes--------------------------------#

pair_style  gran/hooke/history 1e-4 NULL 1e-5 NULL 0.0 0    # pairwise interaction
pair_coeff  * *                                             # between atoms

# pairwise interaction between z-wall and atoms
fix wall all wall/gran hooke/history 1e-3 NULL 1e-4 NULL 0 0 zplane 0.0 1e-04

fix vis all viscous 1e-5                                    # viscous damping force

fix grav all gravity 9.81 vector 0.0 0.0 -1.0

fix nve all nve/limit 1e-7                                  # NVE integration with
                                                            # maximum distance limit


#---------------------------Post-Physical Processes---------------------------#

fix coeff_sub all nufeb/diffusion_coeff sub ratio 0.8       # defining diffusion coeff in the biofilm
fix coeff_metab1 all nufeb/diffusion_coeff metab1 ratio 0.8    # region is 80% of the value in liquid
fix coeff_metab2 all nufeb/diffusion_coeff metab2 ratio 0.8

#---------------------------Chemical Processes---------------------------------#

fix diff_sub all nufeb/diffusion_reaction sub 1e-9        # diffusion reaction for updating
fix diff_metab1 all nufeb/diffusion_reaction metab1 4e-9     # distribusion of substrate concentration
fix diff_metab2 all nufeb/diffusion_reaction metab2 4e-9

#--------------------------Computations and Outputs----------------------------#

variable mass equal "mass(all)"                             # total mass
variable ncross1 equal "count(CROSS1)"                      # total # of CROSS1
variable ncross2 equal "count(CROSS2)"                      # total # of CROSS2
variable ncheater equal "count(CHEATER)"
variable ndead equal "count(dead)"
variable neps equal "count(EPS)"

shell mkdir vtk_CHEPS_ch                                            # dump vtk files to /vtk folder
dump du1 all vtk 10 vtk_CHEPS_ch/dump*.vtu id type diameter         # require build NUFEB with vtk option
dump du2 all grid/vtk 10 vtk_CHEPS_ch/dump_%_*.vti con rea den gro

#dump du3 all movie 10 movie.avi type diameter view 80 60    # dump video
#dump_modify du3 acolor 1 blue acolor 2 lightgrey framerate 10


                                                            # dump hdf5 files to /hdf5 folder
#shell mkdir hdf5                                           # require build NUFEB with hdf5 option
#dump du3 all nufeb/hdf5 10 dump.h5 id type x y z vx vy vz fx fy fz radius conc reac

thermo_style custom step cpu atoms v_ncross1 v_ncross2 v_ncheater v_ndead v_neps v_mass     # screen and log outputs
thermo 1
thermo_modify   lost ignore

#-----------------------------------Run----------------------------------------#

# issue run command, define timesteps for physical (pairdt) and chemical (diffdt) processes
run_style nufeb diffdt 1e-4 difftol 1e-6 pairdt 1e-2 pairtol 1 pairmax 1000 diffmax 5000

timestep 12000                                               # define biological timesteps (1000s)

run 300                                                    # growing biofilm for 900x1000s
Generated 0 of 6 mixed pair_coeff terms from geometric mixing rule
Last active /omp style is pair_style gran/hooke/history/omp
Neighbor list info ...
  update every 1 steps, delay 10 steps, check yes
  max neighbors/atom: 2000, page size: 100000
  master list distance cutoff = 2.49e-06
  ghost atom cutoff = 2.49e-06
  binsize = 1.245e-06, bins = 49 49 49
  1 neighbor lists, perpetual/occasional/extra = 1 0 0
  (1) pair gran/hooke/history/omp, perpetual
      attributes: half, newton off, size, history, omp
      pair build: half/size/bin/newtoff/omp
      stencil: full/bin/3d
      bin: standard
Per MPI rank memory allocation (min/avg/max) = 11.02 | 11.02 | 11.02 Mbytes
   Step          CPU          Atoms      v_ncross1      v_ncross2      v_ncheater      v_ndead         v_neps         v_mass    
         0   0                    150   50             50             50             0              0              1.3295396e-13
         1   0.38299533           492   90             85             83             0              234            1.6433579e-13
         2   0.75447839           900   117            126            123            0              534            1.8172593e-13
         3   1.0452459           1257   131            147            135            0              844            1.9597897e-13
         4   1.3271255           1582   138            153            146            0              1145           2.0916897e-13
         5   1.5049246           1931   144            161            155            0              1471           2.2191434e-13
         6   1.6485807           2279   149            170            165            0              1795           2.3429125e-13
         7   1.7887302           2641   156            181            175            0              2129           2.4638868e-13
         8   1.9062055           3004   162            189            178            0              2475           2.583307e-13 
         9   2.0207027           3382   171            200            185            0              2826           2.7002045e-13
        10   2.1794558           3760   177            208            192            0              3183           2.8156622e-13
        11   2.3239245           4134   184            217            196            0              3537           2.9285174e-13
        12   2.4627976           4530   189            225            208            0              3908           3.0400309e-13
        13   2.5974346           4951   197            232            214            0              4308           3.1507256e-13
        14   2.6906895           5328   201            234            223            0              4670           3.2553143e-13
        15   2.7743727           5723   207            236            230            0              5050           3.3590682e-13
        16   2.8978048           6113   208            241            235            0              5429           3.4602624e-13
        17   2.9804541           6516   212            250            238            0              5816           3.560162e-13 
        18   3.1001237           6910   218            256            243            0              6193           3.6569785e-13
        19   3.1843928           7343   224            263            251            0              6605           3.7533611e-13
        20   3.322187            7747   230            268            255            0              6994           3.8461443e-13
        21   3.4062354           8152   233            272            266            0              7381           3.9373052e-13
        22   3.503718            8566   237            276            277            0              7776           4.0269617e-13
        23   3.5864105           8977   241            277            289            0              8170           4.1142585e-13
        24   3.7045382           9387   247            282            298            0              8560           4.2006737e-13
        25   3.7783305           9806   251            289            301            0              8965           4.2848858e-13
        26   3.8593121          10227   255            296            309            0              9367           4.3680311e-13
        27   3.9539797          10638   260            298            310            0              9770           4.4495465e-13
        28   4.0440367          11043   262            299            315            0              10167          4.530019e-13 
        29   4.1328137          11466   263            303            322            0              10578          4.6100599e-13
        30   18.293748          11856   265            307            327            0              10957          4.6867175e-13
        31   18.443565          12286   271            312            330            0              11373          4.764628e-13 
        32   18.569949          12698   273            313            336            0              11776          4.8383833e-13
        33   18.726153          13112   280            315            341            0              12176          4.9116154e-13
        34   18.884002          13549   287            320            348            0              12594          4.9849478e-13
        35   19.106545          13976   289            325            353            0              13009          5.055957e-13 
        36   19.439002          14380   293            328            361            0              13398          5.1244277e-13
        37   19.825611          14824   295            332            373            0              13824          5.1944204e-13
        38   20.210789          15228   299            333            378            0              14218          5.2607124e-13
        39   20.802623          15657   301            335            382            0              14639          5.323925e-13 
        40   21.615318          16087   306            341            391            0              15049          5.3859157e-13
        41   22.562518          16520   307            346            398            0              15469          5.4462491e-13
        42   23.449326          16955   312            351            399            0              15893          5.5058675e-13
        43   24.326012          17370   313            352            402            0              16303          5.5627371e-13
        44   25.24117           17808   315            355            409            0              16729          5.6180619e-13
        45   26.177526          18243   317            356            413            0              17157          5.6720559e-13
        46   27.119567          18660   319            356            415            0              17570          5.7215137e-13
        47   28.079664          19080   321            359            418            0              17982          5.770844e-13 
        48   29.045719          19518   325            360            421            0              18412          5.8206173e-13
        49   30.048386          19931   326            363            426            0              18816          5.8691116e-13
        50   41.333457          20374   328            365            431            0              19250          5.916688e-13 
        51   42.391788          20788   331            366            434            0              19657          5.9614739e-13
        52   43.476086          21224   333            367            439            0              20085          6.0063201e-13
        53   44.557877          21677   337            372            440            0              20528          6.0492459e-13
        54   45.653584          22102   340            373            442            0              20947          6.0905512e-13
        55   46.811556          22545   343            375            445            0              21382          6.131548e-13 
        56   47.96202           22999   346            377            447            0              21829          6.1719383e-13
        57   49.145892          23425   347            380            448            0              22250          6.2100317e-13
        58   50.354575          23887   351            385            455            0              22696          6.2490549e-13
        59   51.596462          24347   352            385            457            0              23153          6.2885448e-13
        60   52.913489          24763   352            386            459            0              23566          6.3254985e-13
        61   54.220821          25208   354            387            461            0              24006          6.3632861e-13
        62   55.543943          25671   356            388            463            0              24464          6.4020273e-13
        63   56.903089          26098   359            390            466            0              24883          6.4377149e-13
        64   58.271047          26559   360            391            466            0              25342          6.4752865e-13
        65   59.652465          26995   362            391            469            0              25773          6.5111351e-13
        66   61.060326          27438   364            394            475            0              26205          6.5466276e-13
        67   62.515571          27906   368            395            479            0              26664          6.5831763e-13
        68   63.996826          28353   369            397            480            0              27107          6.6178107e-13
        69   65.516905          28802   369            398            483            0              27552          6.6519468e-13
        70   67.148193          29258   370            400            485            0              28003          6.6851525e-13
        71   68.767553          29710   373            400            487            0              28450          6.7178061e-13
        72   70.387032          30152   373            402            490            0              28887          6.7490514e-13
        73   72.014884          30598   373            404            492            0              29329          6.7804057e-13
        74   73.707568          31057   376            407            492            0              29782          6.8112953e-13
        75   75.414083          31518   377            407            496            0              30238          6.842521e-13 
        76   77.161566          31983   379            410            497            0              30697          6.871964e-13 
        77   78.957561          32422   380            413            498            0              31131          6.9011688e-13
        78   80.788454          32881   380            415            501            0              31585          6.9311462e-13
        79   82.643317          33355   381            417            501            0              32056          6.9617557e-13
        80   84.618322          33805   381            418            504            0              32502          6.991963e-13 
        81   86.549627          34275   383            422            507            0              32963          7.0235435e-13
        82   88.525237          34733   385            423            509            0              33416          7.0544669e-13
        83   90.520212          35210   388            425            510            0              33887          7.0852568e-13
        84   92.568849          35675   389            425            517            0              34344          7.1156997e-13
        85   94.648306          36156   392            426            520            0              34818          7.1478139e-13
        86   96.777251          36612   393            429            522            0              35268          7.1799415e-13
        87   98.970582          37089   393            431            526            0              35739          7.2138831e-13
        88   101.19894          37536   398            431            532            0              36175          7.2475137e-13
        89   103.48702          38018   399            432            538            0              36649          7.2841448e-13
        90   105.91666          38478   400            432            545            0              37101          7.3216037e-13
        91   108.32245          38955   401            433            551            0              37570          7.3620413e-13
        92   110.79321          39426   403            433            554            0              38036          7.4041847e-13
        93   113.27969          39899   405            436            560            0              38498          7.4474565e-13
        94   115.7858           40356   406            438            570            0              38942          7.4909793e-13
        95   118.40911          40838   406            440            580            0              39412          7.5370237e-13
        96   121.06486          41275   407            443            588            0              39837          7.5857307e-13
        97   123.76772          41769   407            444            599            0              40319          7.6400433e-13
        98   126.47902          42209   409            444            614            0              40742          7.693926e-13 
        99   129.33165          42663   410            444            622            0              41187          7.7514869e-13
       100   132.30142          43102   410            445            633            0              41614          7.8105481e-13
       101   135.21056          43557   410            445            648            0              42054          7.8721016e-13
       102   138.15597          43995   413            448            664            0              42470          7.9336639e-13
       103   141.14282          44426   417            448            677            0              42884          7.9990083e-13
       104   144.15642          44867   417            451            693            1              43305          8.0661537e-13
       105   147.25584          45300   421            452            713            1              43713          8.1341548e-13
       106   150.4117           45734   424            452            727            2              44129          8.2080027e-13
       107   153.59068          46179   428            457            747            2              44545          8.2802171e-13
       108   156.80655          46605   429            457            761            2              44956          8.3495223e-13
       109   160.08811          47015   434            457            775            2              45347          8.4188045e-13
       110   163.49547          47450   437            462            789            2              45760          8.4894195e-13
       111   166.88633          47878   440            466            803            2              46167          8.5601572e-13
       112   170.30483          48286   443            469            817            3              46554          8.6283271e-13
       113   173.75275          48714   449            473            830            3              46959          8.6945392e-13
       114   177.33264          49164   453            477            844            4              47386          8.7555165e-13
       115   180.92105          49605   455            477            854            6              47813          8.8111007e-13
       116   184.55077          50045   464            480            867            6              48228          8.8638465e-13
       117   188.31509          50507   468            483            872            8              48676          8.9132456e-13
       118   192.00044          50951   471            486            876            10             49108          8.9555274e-13
       119   195.81197          51455   473            492            883            12             49595          9.0004435e-13
       120   199.82697          51936   473            498            894            14             50057          9.0409507e-13
       121   203.79874          52379   475            500            893            20             50491          9.0774039e-13
       122   207.78531          52877   478            501            896            22             50980          9.1128341e-13
       123   211.84628          53365   485            505            895            25             51455          9.1447524e-13
       124   215.9728           53863   490            509            894            30             51940          9.1735711e-13
       125   220.16428          54375   492            513            887            37             52446          9.1991564e-13
       126   224.40573          54915   493            514            887            40             52981          9.2235262e-13
       127   228.68173          55455   497            516            885            43             53514          9.2446391e-13
       128   233.03239          56013   497            517            881            48             54070          9.2648612e-13
       129   237.46314          56549   499            520            878            52             54600          9.2815642e-13
       130   242.13154          57115   500            521            878            54             55162          9.2989352e-13
       131   246.63287          57700   502            522            876            56             55744          9.3156715e-13
       132   251.1884           58288   502            526            873            60             56327          9.3311814e-13
       133   255.84894          58870   502            528            870            63             56907          9.3466663e-13
       134   260.59536          59454   503            529            869            66             57487          9.3614068e-13
       135   265.42541          60057   503            530            868            67             58089          9.3775114e-13
       136   270.32474          60636   503            532            866            69             58666          9.3921851e-13
       137   275.33097          61259   505            533            864            72             59285          9.4082777e-13
       138   280.4384           61834   506            533            861            75             59859          9.4225793e-13
       139   285.61225          62438   506            534            857            79             60462          9.4379003e-13
       140   291.04431          63017   506            534            852            84             61041          9.452219e-13 
       141   296.40994          63613   506            535            851            86             61635          9.4680705e-13
       142   301.84179          64188   506            537            848            89             62208          9.4829257e-13
       143   307.3906           64790   507            537            847            90             62809          9.4996412e-13
       144   313.01446          65385   507            539            842            95             63402          9.5158469e-13
       145   318.75505          65970   507            539            841            97             63986          9.5312634e-13
       146   324.58844          66567   507            539            840            100            64581          9.5475109e-13
       147   330.51716          67174   508            542            837            104            65183          9.5640335e-13
       148   336.57664          67735   508            542            836            105            65744          9.5787645e-13
       149   342.69441          68346   508            544            835            106            66353          9.5961029e-13
       150   349.08384          68917   509            544            831            110            66923          9.6117282e-13
       151   355.39842          69489   510            545            830            111            67493          9.6275744e-13
       152   361.77929          70089   512            545            830            111            68091          9.6445301e-13
       153   368.22109          70673   513            546            830            113            68671          9.6609393e-13
       154   374.7439           71259   514            548            829            114            69254          9.6790527e-13
       155   381.35526          71851   515            549            827            116            69844          9.6969027e-13
       156   388.06342          72441   516            552            823            120            70430          9.7149268e-13
       157   394.86447          73040   516            554            819            124            71027          9.732576e-13 
       158   401.76146          73609   516            554            818            126            71595          9.7485097e-13
       159   408.74732          74240   516            555            816            129            72224          9.7672682e-13
       160   416.02947          74812   516            558            814            131            72793          9.784338e-13 
       161   423.20248          75408   517            559            814            132            73386          9.8029329e-13
       162   430.45748          75991   517            559            814            133            73968          9.8208315e-13
       163   437.81385          76576   517            560            813            135            74551          9.8391134e-13
       164   445.2793           77181   517            561            810            138            75155          9.8578134e-13
       165   452.81261          77743   517            561            807            141            75717          9.8757447e-13
       166   460.44747          78366   517            563            803            145            76338          9.8951534e-13
       167   468.15965          78937   518            563            798            151            76907          9.9125743e-13
       168   475.94931          79533   518            563            795            154            77503          9.9313408e-13
       169   483.83142          80119   519            566            792            157            78085          9.9505114e-13
       170   491.99041          80721   520            566            789            160            78686          9.9705672e-13
       171   500.04789          81303   520            566            785            164            79268          9.9894981e-13
       172   508.19925          81917   521            566            786            164            79880          1.0009353e-12
       173   516.45721          82505   521            567            786            166            80465          1.0027476e-12
       174   524.82577          83096   522            567            784            168            81055          1.0045583e-12
       175   533.2873           83698   522            569            780            172            81655          1.0065675e-12
       176   541.81343          84278   522            569            777            175            82235          1.0084386e-12
       177   550.44132          84891   522            570            776            178            82845          1.0105062e-12
       178   559.22568          85443   522            571            774            180            83396          1.0122964e-12
       179   568.05784          86079   523            571            772            182            84031          1.0144754e-12
       180   577.21036          86640   524            571            770            184            84591          1.0162842e-12
       181   586.23316          87263   524            573            772            185            85209          1.0183554e-12
       182   595.35599          87839   526            573            772            185            85783          1.0202454e-12
       183   604.5554           88455   526            573            771            186            86399          1.0222543e-12
       184   613.84148          89037   526            574            768            189            86980          1.024156e-12 
       185   623.20129          89658   526            575            766            192            87599          1.0261857e-12
       186   632.55265          90246   526            576            760            198            88186          1.0281468e-12
       187   642.01411          90849   526            576            759            200            88788          1.0301743e-12
       188   651.57227          91451   526            576            752            208            89389          1.0322015e-12
       189   661.24877          92039   526            576            749            212            89976          1.0341931e-12
       190   671.19121          92638   527            576            748            213            90574          1.0362097e-12
       191   681.02235          93261   527            577            746            216            91195          1.0383507e-12
       192   691.02042          93838   527            577            741            222            91771          1.0403057e-12
       193   701.06267          94452   527            578            738            227            92382          1.042405e-12 
       194   711.13438          95031   527            578            737            228            92961          1.0443724e-12
       195   721.35239          95660   527            580            734            231            93588          1.0464825e-12
       196   731.64936          96237   529            580            732            234            94162          1.0484143e-12
       197   742.03352          96861   530            580            729            237            94785          1.0505667e-12
       198   752.51288          97440   530            581            724            242            95363          1.0524933e-12
       199   763.10476          98043   530            581            719            247            95966          1.0545389e-12
       200   773.99411          98663   530            582            714            252            96585          1.0566587e-12
       201   784.72799          99241   530            582            712            254            97163          1.0586729e-12
       202   795.60922          99869   531            582            708            258            97790          1.0608526e-12
       203   806.52762         100464   531            584            705            262            98382          1.062893e-12 
       204   817.53659         101064   532            584            703            265            98980          1.06501e-12  
       205   828.57323         101694   533            584            697            272            99608          1.0671606e-12
       206   839.75079         102266   533            586            696            273            100178         1.0691337e-12
       207   851.03325         102903   533            586            694            275            100815         1.0714086e-12
       208   862.42966         103479   533            587            691            278            101390         1.0734114e-12
       209   873.92197         104108   533            587            688            281            102019         1.0757031e-12
       210   885.74962         104706   534            589            683            287            102613         1.0778436e-12
       211   897.4224          105321   534            590            681            289            103227         1.0800758e-12
       212   909.23026         105917   534            590            679            292            103822         1.082209e-12 
       213   921.12408         106533   534            590            674            297            104438         1.0843494e-12
       214   933.13121         107142   534            590            670            302            105046         1.0864748e-12
       215   945.22844         107729   534            591            669            304            105631         1.0885406e-12
       216   957.42029         108361   534            592            667            306            106262         1.0907788e-12
       217   969.76455         108971   535            592            663            311            106870         1.0930524e-12
       218   982.15327         109582   535            594            660            315            107478         1.0953924e-12
       219   994.64574         110169   536            595            660            315            108063         1.0976732e-12
       220   1007.4844         110789   536            597            659            316            108681         1.1000936e-12
       221   1020.2152         111408   536            597            661            316            109298         1.1025754e-12
       222   1033.0592         112004   536            597            661            317            109893         1.1050189e-12
       223   1046.1114         112625   536            597            659            320            110513         1.1076544e-12
       224   1059.3232         113225   536            598            656            325            111110         1.1102159e-12
       225   1072.5626         113829   536            598            655            327            111713         1.1128222e-12
       226   1085.7915         114430   537            600            652            331            112310         1.1154506e-12
       227   1099.2035         115063   538            601            651            334            112939         1.118196e-12 
       228   1112.7038         115658   538            603            652            335            113530         1.1208892e-12
       229   1126.3101         116270   538            604            648            340            114140         1.1238042e-12
       230   1140.3946         116870   539            605            649            343            114734         1.1268347e-12
       231   1154.2754         117476   539            607            651            346            115333         1.130292e-12 
       232   1168.1891         118074   539            608            650            351            115926         1.1339269e-12
       233   1182.2338         118689   539            610            651            357            116532         1.1376809e-12
       234   1196.4857         119284   541            615            647            363            117118         1.1414302e-12
       235   1210.7896         119896   541            617            649            369            117720         1.1458872e-12
       236   1225.2234         120497   541            619            644            382            118311         1.1505448e-12
       237   1239.8084         121080   541            623            651            385            118880         1.1556166e-12
       238   1254.4433         121656   541            628            656            394            119437         1.161225e-12 
       239   1269.1425         122250   542            633            660            398            120017         1.1669097e-12
       240   1284.2573         122810   542            638            660            405            120565         1.1727529e-12
       241   1299.2377         123417   542            641            669            408            121157         1.1790152e-12
       242   1314.2696         123984   544            645            678            414            121703         1.1851072e-12
       243   1329.4322         124540   546            648            673            428            122245         1.1905692e-12
       244   1344.6676         125145   549            653            685            433            122825         1.1964463e-12
       245   1360.0098         125669   555            656            688            439            123331         1.2018332e-12
       246   1375.3943         126223   559            659            690            444            123871         1.207259e-12 
       247   1390.8822         126804   560            668            693            453            124430         1.2126498e-12
       248   1406.5258         127367   560            676            699            460            124972         1.2179967e-12
       249   1422.2825         127935   567            681            697            464            125526         1.223005e-12 
       250   1438.4515         128555   568            687            695            472            126133         1.2280511e-12
       251   1454.3875         129123   570            688            693            479            126693         1.2326842e-12
       252   1470.3897         129709   571            695            688            486            127269         1.2368512e-12
       253   1486.4205         130296   576            700            681            494            127845         1.240832e-12 
       254   1502.5701         130895   576            701            674            505            128439         1.2444711e-12
       255   1518.833          131495   580            703            669            511            129032         1.2479341e-12
       256   1534.9331         132135   581            705            662            519            129668         1.2511634e-12
       257   1551.1446         132765   582            706            654            528            130295         1.2542374e-12
       258   1567.4568         133456   586            706            647            537            130980         1.2572534e-12
       259   1583.8163         134143   587            706            640            544            131666         1.2600952e-12
       260   1600.5271         134858   589            706            636            550            132377         1.2630351e-12
       261   1617.0274         135560   592            707            627            559            133075         1.2658189e-12
       262   1633.7225         136269   592            709            621            566            133781         1.2686607e-12
       263   1650.525          137002   592            709            619            569            134513         1.2714993e-12
       264   1667.4759         137705   592            709            620            571            135213         1.2742817e-12
       265   1684.5141         138467   593            711            614            577            135972         1.2772704e-12
       266   1701.6282         139161   594            711            611            581            136664         1.2799972e-12
       267   1718.8757         139929   594            711            602            590            137432         1.2829679e-12
       268   1736.3019         140650   595            712            599            593            138151         1.2857155e-12
       269   1753.8521         141371   596            712            595            597            138871         1.2885394e-12
       270   1771.8834         142118   597            712            590            602            139617         1.2913796e-12
       271   1789.8269         142830   598            712            589            603            140328         1.2942062e-12
       272   1807.7769         143555   598            712            583            609            141053         1.2970096e-12
       273   1825.7348         144290   599            713            580            612            141786         1.299908e-12 
       274   1843.8479         145022   599            713            577            615            142518         1.3027912e-12
       275   1862.1692         145743   600            713            575            618            143237         1.3055971e-12
       276   1880.634          146458   600            713            574            619            143952         1.3084073e-12
       277   1899.217          147196   600            714            574            619            144689         1.3112996e-12
       278   1917.9425         147920   603            716            571            623            145407         1.3140387e-12
       279   1936.8033         148657   603            716            569            625            146144         1.3169655e-12
       280   1956.1351         149369   604            716            568            626            146855         1.3197083e-12
       281   1975.3432         150099   603            716            563            632            147585         1.3226242e-12
       282   1994.7554         150804   603            716            562            634            148289         1.3252993e-12
       283   2014.3315         151544   603            716            563            634            149028         1.3282605e-12
       284   2034.0398         152265   604            716            558            639            149748         1.3310181e-12
       285   2053.9683         152994   604            718            558            639            150475         1.3338479e-12
       286   2074.0326         153716   604            718            556            641            151197         1.3366544e-12
       287   2094.1772         154450   605            718            556            641            151930         1.3395126e-12
       288   2114.4701         155163   605            718            555            642            152643         1.3423181e-12
       289   2134.9263         155903   605            718            553            645            153382         1.3451837e-12
       290   2155.8835         156600   605            717            551            649            154078         1.3478942e-12
       291   2176.6464         157344   605            717            550            650            154822         1.3507626e-12
       292   2197.5359         158059   605            717            546            654            155537         1.3536037e-12
       293   2218.587          158792   605            717            542            659            156269         1.3564713e-12
       294   2239.7999         159500   605            716            540            663            156976         1.359248e-12 
       295   2261.0977         160245   605            716            538            665            157721         1.3621714e-12
       296   2282.5265         160931   605            716            535            668            158407         1.3649107e-12
       297   2304.1472         161668   606            716            529            674            159143         1.367769e-12 
       298   2325.9849         162379   607            714            527            678            159853         1.3706056e-12
       299   2347.8358         163110   607            714            525            681            160583         1.3734608e-12
       300   2370.3244         163825   607            715            524            682            161297         1.3763085e-12
Loop time of 2370.32 on 16 procs for 300 steps with 163825 atoms

97.9% CPU use with 16 MPI tasks x 1 OpenMP threads

MPI task timing breakdown:
Section |  min time  |  avg time  |  max time  |%varavg| %total
---------------------------------------------------------------
Pair    | 691.68     | 747.01     | 828.49     | 155.1 | 31.52
Neigh   | 691.38     | 745.83     | 818.63     | 144.3 | 31.47
Comm    | 237.62     | 250.16     | 259.55     |  40.6 | 10.55
Output  | 29.665     | 29.666     | 29.667     |   0.0 |  1.25
Modify  | 433.79     | 589.67     | 687.4      | 321.4 | 24.88
Other   |            | 7.986      |            |       |  0.34

Nlocal:        10239.1 ave       10705 max        9860 min
Histogram: 3 2 0 3 0 3 2 1 0 2
Nghost:        7858.88 ave        8090 max        7653 min
Histogram: 2 2 1 3 1 1 2 1 1 2
Neighs:         125137 ave      135369 max      117657 min
Histogram: 2 2 2 2 2 2 1 1 1 1

Total # of neighbors = 2002188
Ave neighs/atom = 12.221505
Neighbor list builds = 26384
Dangerous builds = 26084

Total wall time: 0:39:58
