LAMMPS (23 Jun 2022 - Update 4)
  using 1 OpenMP thread(s) per MPI task
package omp 0
using multi-threaded neighbor list subroutines
#-----------------------------------------------------------------------------#
#                NUFEB Simulation: Heterotrophic Biofilm Growth               #
#-----------------------------------------------------------------------------#


#-----------------------------System Settings---------------------------------#

units si                                    # using si units (m, s, kg)
atom_style      coccus                      # using nufeb coccus atom style
atom_modify     map array sort 10 0         # map array - find atoms using indices
		                            # sort every 10

boundary        pp pp ff                    # periodic boundaries in x and y
                                            # fixed boundary in z

newton          off                         # forces between local and ghost
                                            # atoms are computed in each
					     # processor without communication

processors      * * 1                       # processor grid

comm_modify     vel yes                     # communicate velocities for ghost atoms

read_data       atom_ch.in	             # read atom.in file which defines domain size
Reading data file ...
  orthogonal box = (0 0 0) to (6e-05 6e-05 6e-05)
  4 by 4 by 1 MPI processor grid
  reading atoms ...
  150 atoms
  read_data CPU = 0.052 seconds
                                            # and initial atoms


#--------------------Microbes and Functional Groups-------------------------#

group           CROSS1   type 1               # assign type 1,2 atoms to CROSS group
50 atoms in group CROSS1
group           CROSS2   type 2
50 atoms in group CROSS2
group		CHEATER  type 3
50 atoms in group CHEATER
group           dead     type 4
0 atoms in group dead
group		EPS	 type 5
0 atoms in group EPS

neighbor        5e-7 bin                   # setting neighbour skin distance and style

neigh_modify    check yes                  # rebuild neighbour list if any atom
                                           # had moved more than half the skin distance


#--------------------------Mesh Grid and Substrates--------------------------#

# defining grid sytle, substrate names, and grid size
grid_style      nufeb/chemostat 3 sub metab1 metab2 5e-6

# set diffusion boundary conditions and initial concentrations (liquid:kg/m3)
grid_modify     set sub      pp pp nd  1.8e-4
No /omp style for force computation currently active
grid_modify     set metab1   pp pp nd  1e-4
No /omp style for force computation currently active
grid_modify     set metab2   pp pp nd  1e-4
No /omp style for force computation currently active


#--------------------------Biological Processes-------------------------------#

# heterotrophs growth
fix growth_cross1 CROSS1 nufeb/growth/cross1 sub 3.5e-5 metab2 4e-3 metab1 growth 0.009 yield 0.6 decay 2.6e-6 metab1_exp 20 epsyield 0.12 epsdens 30

fix growth_cross2 CROSS2 nufeb/growth/cross2 sub 3.5e-5 metab1 4e-3 metab2 growth 0.009 yield 0.6 decay 2.6e-6 metab2_exp 20 epsyield 0.12 epsdens 30

fix growth_cheater CHEATER nufeb/growth/cheater sub 3.5e-5 metab1 1e-3 metab2 1e-3 growth 0.009 yield 0.6 decay 2.6e-6 epsyield 0.12 epsdens 30

# heterotrophs division, division diameter: 1.36e-6
fix div1 CROSS1 nufeb/division/coccus 1.36e-6 104
fix div2 CROSS2 nufeb/division/coccus 1.36e-6 110
fix div3 CHEATER nufeb/division/coccus 1.36e-6 118

fix death1 CROSS1 nufeb/death/diameter dead 5.43e-7
fix death2 CROSS2 nufeb/death/diameter dead 5.43e-7
fix death3 CHEATER nufeb/death/diameter dead 5.43e-7

# EPS secretion from heterotrophs
fix eps1 CROSS1 nufeb/eps_secretion 5 EPS 1.1 30 128
fix eps2 CROSS2 nufeb/eps_secretion 5 EPS 1.1 30 140
fix eps3 CROSS2 nufeb/eps_secretion 5 EPS 1.1 30 154
#---------------------------Physical Processes--------------------------------#

pair_style  gran/hooke/history 1e-4 NULL 1e-5 NULL 0.0 0    # pairwise interaction
pair_coeff  * *                                             # between atoms

# pairwise interaction between z-wall and atoms
fix wall all wall/gran hooke/history 1e-3 NULL 1e-4 NULL 0 0 zplane 0.0 1e-04

fix vis all viscous 1e-5                                    # viscous damping force

fix grav all gravity 9.81 vector 0.0 0.0 -1.0

fix nve all nve/limit 1e-7                                  # NVE integration with
                                                            # maximum distance limit


#---------------------------Post-Physical Processes---------------------------#

fix coeff_sub all nufeb/diffusion_coeff sub ratio 0.8       # defining diffusion coeff in the biofilm
fix coeff_metab1 all nufeb/diffusion_coeff metab1 ratio 0.8    # region is 80% of the value in liquid
fix coeff_metab2 all nufeb/diffusion_coeff metab2 ratio 0.8

#---------------------------Chemical Processes---------------------------------#

fix diff_sub all nufeb/diffusion_reaction sub 1e-9        # diffusion reaction for updating
fix diff_metab1 all nufeb/diffusion_reaction metab1 4e-9     # distribusion of substrate concentration
fix diff_metab2 all nufeb/diffusion_reaction metab2 4e-9

#--------------------------Computations and Outputs----------------------------#

variable mass equal "mass(all)"                             # total mass
variable ncross1 equal "count(CROSS1)"                      # total # of CROSS1
variable ncross2 equal "count(CROSS2)"                      # total # of CROSS2
variable ncheater equal "count(CHEATER)"
variable ndead equal "count(dead)"
variable neps equal "count(EPS)"

shell mkdir vtk_CHEPS_ch                                            # dump vtk files to /vtk folder
dump du1 all vtk 10 vtk_CHEPS_ch/dump*.vtu id type diameter         # require build NUFEB with vtk option
dump du2 all grid/vtk 10 vtk_CHEPS_ch/dump_%_*.vti con rea den gro

#dump du3 all movie 10 movie.avi type diameter view 80 60    # dump video
#dump_modify du3 acolor 1 blue acolor 2 lightgrey framerate 10


                                                            # dump hdf5 files to /hdf5 folder
#shell mkdir hdf5                                           # require build NUFEB with hdf5 option
#dump du3 all nufeb/hdf5 10 dump.h5 id type x y z vx vy vz fx fy fz radius conc reac

thermo_style custom step cpu atoms v_ncross1 v_ncross2 v_ncheater v_ndead v_neps v_mass     # screen and log outputs
thermo 1
thermo_modify   lost ignore

#-----------------------------------Run----------------------------------------#

# issue run command, define timesteps for physical (pairdt) and chemical (diffdt) processes
run_style nufeb diffdt 1e-4 difftol 1e-6 pairdt 1e-2 pairtol 1 pairmax 1000 diffmax 5000

timestep 12000                                               # define biological timesteps (1000s)

run 300                                                    # growing biofilm for 900x1000s
Generated 0 of 6 mixed pair_coeff terms from geometric mixing rule
Last active /omp style is pair_style gran/hooke/history/omp
Neighbor list info ...
  update every 1 steps, delay 10 steps, check yes
  max neighbors/atom: 2000, page size: 100000
  master list distance cutoff = 2.49e-06
  ghost atom cutoff = 2.49e-06
  binsize = 1.245e-06, bins = 49 49 49
  1 neighbor lists, perpetual/occasional/extra = 1 0 0
  (1) pair gran/hooke/history/omp, perpetual
      attributes: half, newton off, size, history, omp
      pair build: half/size/bin/newtoff/omp
      stencil: full/bin/3d
      bin: standard
Per MPI rank memory allocation (min/avg/max) = 11.02 | 11.02 | 11.02 Mbytes
   Step          CPU          Atoms      v_ncross1      v_ncross2      v_ncheater      v_ndead         v_neps         v_mass    
         0   0                    150   50             50             50             0              0              1.3295396e-13
         1   0.38578782           492   90             85             83             0              234            1.6439611e-13
         2   0.76482753           893   118            127            123            0              525            1.8146812e-13
         3   1.0645841           1240   131            144            140            0              825            1.9581294e-13
         4   1.3543199           1570   138            153            149            0              1130           2.0913256e-13
         5   1.5366935           1906   142            157            159            0              1448           2.2202443e-13
         6   1.6925562           2233   148            168            164            0              1753           2.3454239e-13
         7   1.8604959           2591   156            176            173            0              2086           2.4691007e-13
         8   2.0111629           2962   163            191            178            0              2430           2.5896561e-13
         9   2.1335239           3331   168            201            184            0              2778           2.7077012e-13
        10   15.04177            3716   176            211            191            0              3138           2.8227587e-13
        11   15.157289           4087   183            215            198            0              3491           2.9354969e-13
        12   15.261206           4480   186            223            211            0              3860           3.0478423e-13
        13   15.390922           4874   190            230            219            0              4235           3.1578351e-13
        14   15.490527           5258   194            235            222            0              4607           3.2638656e-13
        15   15.5855             5651   198            238            231            0              4984           3.3682607e-13
        16   15.674177           6058   204            244            237            0              5373           3.4705582e-13
        17   15.770027           6440   207            250            243            0              5740           3.5695954e-13
        18   15.884807           6839   211            253            248            0              6127           3.6677827e-13
        19   15.971432           7237   218            255            259            0              6505           3.7618917e-13
        20   31.146269           7639   221            263            264            0              6891           3.8536095e-13
        21   31.222563           8040   230            270            268            0              7272           3.9430829e-13
        22   31.287555           8449   236            274            274            0              7665           4.0317667e-13
        23   31.385975           8869   240            280            281            0              8068           4.1185552e-13
        24   31.484975           9280   241            287            285            0              8467           4.2032528e-13
        25   31.563349           9699   244            293            292            0              8870           4.2864176e-13
        26   31.655737          10130   251            300            304            0              9275           4.3676146e-13
        27   31.751834          10522   256            300            309            0              9657           4.4477658e-13
        28   31.85314           10952   261            306            316            0              10069          4.5261875e-13
        29   31.968398          11369   265            313            320            0              10471          4.6024638e-13
        30   32.127917          11795   270            319            322            0              10884          4.6770106e-13
        31   32.223365          12221   273            323            333            0              11292          4.7503106e-13
        32   32.358678          12636   279            325            339            0              11693          4.8214153e-13
        33   32.48751           13064   284            326            341            0              12113          4.8916297e-13
        34   32.636261          13489   289            328            347            0              12525          4.9609774e-13
        35   32.902696          13921   293            331            354            0              12943          5.0293972e-13
        36   33.371268          14344   295            336            358            0              13355          5.0957183e-13
        37   33.744408          14766   296            339            365            0              13766          5.1602239e-13
        38   34.247899          15187   299            344            373            0              14171          5.2209408e-13
        39   35.104166          15598   300            346            375            0              14577          5.2826041e-13
        40   39.3591            16014   304            346            380            0              14984          5.3420531e-13
        41   40.047284          16454   305            349            382            0              15418          5.3999369e-13
        42   40.902538          16865   309            354            389            0              15813          5.4538231e-13
        43   41.789458          17318   311            357            394            0              16256          5.5097026e-13
        44   42.684671          17707   312            359            401            0              16635          5.561226e-13 
        45   43.585709          18166   316            362            403            0              17085          5.6141764e-13
        46   44.518984          18587   317            364            405            0              17501          5.6646659e-13
        47   45.454352          19026   319            367            408            0              17932          5.714332e-13 
        48   46.430655          19444   321            368            414            0              18341          5.7622993e-13
        49   47.437941          19881   324            370            416            0              18771          5.8088732e-13
        50   48.50699           20320   326            370            418            0              19206          5.8546721e-13
        51   49.660364          20728   327            371            421            0              19609          5.8979016e-13
        52   50.699348          21180   330            375            425            0              20050          5.9422834e-13
        53   51.789216          21611   333            378            430            0              20470          5.9843225e-13
        54   52.887589          22060   335            379            432            0              20914          6.0274287e-13
        55   54.019153          22493   337            382            432            0              21342          6.0686524e-13
        56   55.192188          22936   338            383            434            0              21781          6.1102168e-13
        57   56.363656          23367   340            385            438            0              22204          6.1492847e-13
        58   57.561908          23808   344            389            439            0              22636          6.1884224e-13
        59   58.807647          24274   348            393            440            0              23093          6.2270861e-13
        60   60.136205          24712   349            394            444            0              23525          6.2635366e-13
        61   61.416878          25173   350            396            444            0              23983          6.3014269e-13
        62   62.709373          25616   353            400            446            0              24417          6.3362461e-13
        63   64.028597          26086   354            402            447            0              24883          6.3719959e-13
        64   65.386516          26526   354            403            449            0              25320          6.4060508e-13
        65   66.763287          26983   355            405            450            0              25773          6.4404016e-13
        66   68.169181          27436   358            406            452            0              26220          6.4744949e-13
        67   69.609484          27886   358            407            455            0              26666          6.5076605e-13
        68   71.080756          28348   358            407            459            0              27124          6.5412402e-13
        69   72.583657          28794   360            409            462            0              27563          6.573858e-13 
        70   81.931775          29237   360            410            464            0              28003          6.6058068e-13
        71   83.496343          29697   361            412            465            0              28459          6.6383081e-13
        72   85.0843            30140   363            415            469            0              28893          6.6687511e-13
        73   86.708653          30615   364            421            469            0              29361          6.7005216e-13
        74   88.368739          31054   366            421            469            0              29798          6.7304362e-13
        75   90.074369          31518   370            423            469            0              30256          6.7613225e-13
        76   91.830292          31963   371            423            471            0              30698          6.7907029e-13
        77   93.617023          32461   372            429            474            0              31186          6.8228061e-13
        78   95.439903          32900   373            431            474            0              31622          6.8517902e-13
        79   97.307452          33375   373            431            475            0              32096          6.882148e-13 
        80   99.284517          33827   374            432            477            0              32544          6.9105272e-13
        81   101.21696          34304   375            439            479            0              33011          6.9384363e-13
        82   103.17945          34776   380            439            482            0              33475          6.9659806e-13
        83   105.19612          35253   381            440            483            0              33949          6.9936032e-13
        84   107.26372          35734   382            442            488            0              34422          7.0199923e-13
        85   109.36547          36205   382            445            492            0              34886          7.0474874e-13
        86   111.53176          36669   385            445            494            0              35345          7.0748637e-13
        87   113.79956          37154   388            445            495            0              35826          7.1044111e-13
        88   116.07259          37626   389            448            498            0              36291          7.134203e-13 
        89   118.37374          38091   392            449            499            0              36751          7.1632231e-13
        90   120.89914          38557   392            449            500            0              37216          7.1944238e-13
        91   123.33665          39022   394            450            504            0              37674          7.2288632e-13
        92   125.77547          39506   395            451            510            0              38150          7.2632925e-13
        93   128.34035          39952   397            451            514            0              38590          7.2967941e-13
        94   130.91251          40425   398            452            515            0              39060          7.3363113e-13
        95   133.53512          40898   400            453            524            0              39521          7.3765908e-13
        96   136.29752          41354   402            453            528            0              39971          7.4182622e-13
        97   139.09135          41825   404            453            534            0              40434          7.4648915e-13
        98   141.9306           42278   408            453            546            1              40870          7.5122177e-13
        99   144.93052          42733   408            455            552            1              41317          7.560159e-13 
       100   148.00525          43184   412            456            560            1              41755          7.6102992e-13
       101   151.07424          43617   416            457            571            1              42172          7.6614223e-13
       102   154.18901          44079   417            459            584            1              42618          7.7179779e-13
       103   157.32799          44520   421            461            598            1              43039          7.7754784e-13
       104   160.54495          44951   425            462            608            2              43454          7.8340314e-13
       105   163.75657          45393   427            464            625            2              43875          7.8946496e-13
       106   166.99435          45855   433            467            638            2              44315          7.9580842e-13
       107   170.34521          46277   436            468            654            2              44717          8.0198568e-13
       108   173.73791          46755   441            471            667            2              45174          8.0882208e-13
       109   177.17482          47180   443            474            680            2              45581          8.1514345e-13
       110   180.8159           47665   447            477            697            2              46042          8.2181708e-13
       111   184.41203          48101   450            478            708            2              46463          8.2828973e-13
       112   188.09431          48565   454            483            723            2              46903          8.3436729e-13
       113   191.81025          48992   459            487            735            2              47309          8.4013493e-13
       114   195.56832          49441   463            498            739            4              47737          8.4576579e-13
       115   199.43553          49899   466            501            751            6              48175          8.5115235e-13
       116   203.40253          50389   467            503            758            7              48654          8.5620853e-13
       117   207.35381          50844   471            507            763            8              49095          8.6088359e-13
       118   211.43051          51328   474            510            769            10             49565          8.6545488e-13
       119   215.56399          51814   478            512            771            12             50041          8.694828e-13 
       120   219.86269          52322   481            520            771            16             50534          8.733411e-13 
       121   224.15622          52832   483            524            770            20             51035          8.7714141e-13
       122   228.54             53345   483            524            769            23             51546          8.8071277e-13
       123   233.03223          53845   486            529            773            25             52032          8.8404876e-13
       124   237.60119          54362   489            533            776            26             52538          8.8727258e-13
       125   242.24508          54938   492            536            779            27             53104          8.9050906e-13
       126   246.99608          55460   493            537            776            32             53622          8.9313653e-13
       127   251.79289          56032   494            538            776            34             54190          8.9579043e-13
       128   256.65382          56565   495            540            775            36             54719          8.9793672e-13
       129   261.57194          57167   495            541            772            40             55319          9.0028341e-13
       130   266.71108          57725   498            543            767            45             55872          9.0223668e-13
       131   271.82247          58335   500            543            764            48             56480          9.0440815e-13
       132   277.0384           58916   501            544            761            52             57058          9.0635728e-13
       133   282.34922          59509   502            544            759            56             57648          9.0831677e-13
       134   287.7493           60116   502            545            757            58             58254          9.1033218e-13
       135   293.24691          60700   502            545            754            61             58838          9.1226162e-13
       136   298.81808          61298   504            545            754            62             59433          9.1424878e-13
       137   304.51204          61901   505            547            746            70             60033          9.1627722e-13
       138   310.30865          62484   506            549            742            75             60612          9.1830214e-13
       139   316.20906          63083   507            549            741            77             61209          9.2039912e-13
       140   322.37392          63670   509            550            737            81             61793          9.2237034e-13
       141   328.49219          64262   509            552            735            83             62383          9.2444088e-13
       142   334.76677          64861   510            552            733            85             62981          9.2644368e-13
       143   341.12748          65471   511            553            731            87             63589          9.2860903e-13
       144   347.62277          66024   511            554            730            91             64138          9.304695e-13 
       145   354.22759          66640   511            554            729            93             64753          9.3267732e-13
       146   360.9833           67224   511            554            727            95             65337          9.3467866e-13
       147   367.8183           67804   514            554            722            100            65914          9.3673613e-13
       148   374.75918          68397   515            554            719            103            66506          9.3875715e-13
       149   381.841            68982   515            555            715            107            67090          9.408343e-13 
       150   389.21526          69577   516            557            714            108            67682          9.4288597e-13
       151   396.54208          70155   516            557            711            112            68259          9.4491853e-13
       152   403.98527          70757   518            557            709            116            68857          9.4695402e-13
       153   411.54434          71332   519            558            705            120            69430          9.4902296e-13
       154   419.2254           71935   520            558            699            126            70032          9.5107175e-13
       155   427.00013          72530   522            559            695            130            70624          9.5319155e-13
       156   434.85125          73125   522            560            692            133            71218          9.5523442e-13
       157   442.85399          73727   522            561            689            137            71818          9.5737795e-13
       158   450.9732           74311   522            562            688            139            72400          9.5939698e-13
       159   459.20833          74913   524            563            687            141            72998          9.6153495e-13
       160   467.76789          75502   524            563            689            141            73585          9.6358822e-13
       161   476.26454          76098   524            566            690            141            74177          9.6576481e-13
       162   484.93052          76705   525            566            689            142            74783          9.6794642e-13
       163   493.65315          77288   525            567            685            146            75365          9.7011542e-13
       164   502.42134          77878   525            567            684            147            75955          9.7223663e-13
       165   511.34967          78483   525            567            680            151            76560          9.7444996e-13
       166   520.3347           79070   525            567            679            152            77147          9.7657681e-13
       167   529.416            79647   525            568            670            161            77723          9.7862512e-13
       168   538.64132          80265   525            568            667            164            78341          9.8095973e-13
       169   547.94594          80835   525            570            667            166            78907          9.829716e-13 
       170   557.56398          81449   526            570            663            170            79520          9.8528608e-13
       171   567.0907           82029   526            571            664            170            80098          9.8739e-13   
       172   576.75992          82644   528            571            663            171            80711          9.896371e-13 
       173   586.52232          83214   528            572            662            172            81280          9.9181301e-13
       174   596.4039           83835   529            575            661            173            81897          9.9406613e-13
       175   606.41382          84416   529            575            655            179            82478          9.9623894e-13
       176   616.55754          85036   529            577            650            184            83096          9.9851401e-13
       177   626.78411          85605   530            578            649            185            83663          1.0006204e-12
       178   637.13102          86228   530            579            647            187            84285          1.0029224e-12
       179   647.58499          86807   530            579            645            189            84864          1.0050991e-12
       180   658.35162          87423   530            579            643            192            85479          1.007286e-12 
       181   668.99635          88009   531            579            639            196            86064          1.0095874e-12
       182   679.78151          88632   531            579            636            199            86687          1.0117514e-12
       183   690.65798          89204   531            581            632            203            87257          1.0138825e-12
       184   701.64655          89819   531            581            630            206            87871          1.0161501e-12
       185   712.73795          90407   532            582            628            209            88456          1.0182871e-12
       186   723.95042          91026   532            583            623            214            89074          1.0205491e-12
       187   735.35874          91600   532            583            621            217            89647          1.0227002e-12
       188   746.86243          92237   534            583            616            222            90282          1.0250088e-12
       189   758.49802          92812   534            584            615            223            90856          1.0271537e-12
       190   770.4334           93428   534            584            611            227            91472          1.0294418e-12
       191   782.31595          94021   534            585            610            230            92062          1.0316531e-12
       192   794.35593          94632   535            588            610            231            92668          1.0339318e-12
       193   806.43896          95238   536            589            607            234            93272          1.0362021e-12
       194   818.68688          95830   536            590            605            237            93862          1.0383877e-12
       195   830.996            96439   536            590            601            241            94471          1.0407164e-12
       196   843.48145          97037   537            591            601            241            95067          1.0429244e-12
       197   856.08155          97656   538            591            598            244            95685          1.0452709e-12
       198   868.8214           98255   541            591            595            247            96281          1.047518e-12 
       199   881.68904          98868   542            591            593            249            96893          1.0496932e-12
       200   894.87278          99488   542            591            589            253            97513          1.0521003e-12
       201   907.95842         100076   542            591            584            258            98101          1.0542206e-12
       202   921.23848         100696   543            593            581            261            98718          1.0565065e-12
       203   934.62568         101310   543            593            579            263            99332          1.0587492e-12
       204   948.13591         101915   543            595            578            265            99934          1.0610499e-12
       205   961.71771         102529   543            595            577            266            100548         1.0632792e-12
       206   975.43049         103123   543            595            576            267            101142         1.0654259e-12
       207   989.28817         103755   543            595            572            271            101774         1.0678679e-12
       208   1003.2857         104343   543            595            569            274            102362         1.06997e-12  
       209   1017.4446         104979   544            596            565            278            102996         1.0723082e-12
       210   1031.9649         105579   545            597            565            278            103594         1.0746003e-12
       211   1046.3732         106195   547            597            563            280            104208         1.0768676e-12
       212   1060.8776         106816   547            597            565            280            104827         1.079199e-12 
       213   1075.4334         107426   548            598            563            283            105434         1.0815373e-12
       214   1090.1453         108058   548            600            559            287            106064         1.083944e-12 
       215   1104.978          108649   549            600            559            288            106653         1.0861839e-12
       216   1119.9212         109280   549            600            553            294            107284         1.088738e-12 
       217   1134.9844         109884   549            600            554            295            107886         1.0911239e-12
       218   1150.1477         110505   549            601            551            299            108505         1.0936323e-12
       219   1165.4423         111117   550            601            548            302            109116         1.096036e-12 
       220   1181.096          111741   550            602            549            303            109737         1.09861e-12  
       221   1196.6328         112340   550            602            546            306            110336         1.1011014e-12
       222   1212.2958         112969   550            602            545            308            110964         1.1037776e-12
       223   1227.9148         113566   550            603            547            309            111557         1.1065354e-12
       224   1243.6922         114205   551            603            545            313            112193         1.1096088e-12
       225   1259.5794         114801   552            602            546            316            112785         1.1127465e-12
       226   1275.6235         115429   553            602            547            318            113409         1.116156e-12 
       227   1291.78           116026   552            602            549            322            114001         1.1196448e-12
       228   1308.063          116650   552            602            551            325            114620         1.1233403e-12
       229   1324.5241         117252   552            603            553            327            115217         1.126923e-12 
       230   1341.4136         117872   552            603            553            332            115832         1.1308957e-12
       231   1358.1862         118474   552            604            552            337            116429         1.135058e-12 
       232   1375.009          119102   552            604            556            344            117046         1.1396539e-12
       233   1392.0299         119681   552            604            558            347            117620         1.1443496e-12
       234   1409.1626         120315   552            604            562            352            118245         1.1495223e-12
       235   1426.4274         120902   552            605            573            354            118818         1.154776e-12 
       236   1443.871          121515   553            605            579            358            119420         1.1603089e-12
       237   1461.3494         122107   555            605            587            362            119998         1.1660738e-12
       238   1478.9904         122678   554            605            597            366            120556         1.1717545e-12
       239   1496.8027         123275   556            606            606            372            121135         1.1780683e-12
       240   1514.9955         123843   560            606            611            378            121688         1.1845617e-12
       241   1533.0186         124410   563            607            623            381            122236         1.191291e-12 
       242   1551.2587         124977   565            609            628            386            122789         1.1982342e-12
       243   1569.5332         125513   566            612            642            389            123304         1.2050814e-12
       244   1587.8913         126045   569            617            647            394            123818         1.2116119e-12
       245   1606.4123         126601   571            620            660            404            124346         1.2181229e-12
       246   1625.1002         127115   573            624            666            410            124842         1.2244039e-12
       247   1643.895          127624   578            630            669            420            125327         1.2303643e-12
       248   1662.828          128187   585            633            671            426            125872         1.2358244e-12
       249   1681.8351         128751   590            637            671            434            126419         1.2407776e-12
       250   1701.129          129258   592            639            671            438            126918         1.2451798e-12
       251   1720.2976         129853   597            644            671            441            127500         1.2493359e-12
       252   1739.5923         130411   604            643            668            446            128050         1.2529937e-12
       253   1758.9418         131050   604            653            663            453            128677         1.2565207e-12
       254   1778.3851         131644   605            655            657            461            129266         1.2597647e-12
       255   1797.9954         132311   607            658            654            465            129927         1.2629151e-12
       256   1817.645          132950   609            658            652            468            130563         1.2657176e-12
       257   1837.4706         133638   609            658            648            475            131248         1.2684516e-12
       258   1857.449          134325   609            659            643            482            131932         1.2710317e-12
       259   1877.6069         135044   611            660            638            488            132647         1.2735135e-12
       260   1898.2293         135748   610            659            636            492            133351         1.2759573e-12
       261   1918.804          136451   610            659            634            494            134054         1.2784073e-12
       262   1939.3876         137174   611            660            634            496            134773         1.2809108e-12
       263   1960.0843         137887   611            660            634            496            135486         1.2834045e-12
       264   1980.9396         138610   611            662            629            501            136207         1.285988e-12 
       265   2001.8825         139339   612            662            626            505            136934         1.2886661e-12
       266   2023.0426         140038   613            661            623            510            137631         1.2911847e-12
       267   2044.3458         140782   612            661            621            514            138374         1.293866e-12 
       268   2065.7864         141481   612            662            618            517            139072         1.2963571e-12
       269   2087.4135         142195   613            662            614            523            139783         1.298907e-12 
       270   2109.4686         142918   613            661            613            525            140506         1.3015575e-12
       271   2131.4533         143628   613            660            611            528            141216         1.3041557e-12
       272   2153.5305         144332   612            660            608            532            141920         1.3066239e-12
       273   2175.6693         145074   613            663            606            534            142658         1.3093049e-12
       274   2198.1005         145754   612            664            605            536            143337         1.3117238e-12
       275   2220.757          146488   613            664            604            537            144070         1.3144066e-12
       276   2243.5573         147166   613            664            602            539            144748         1.3168885e-12
       277   2266.5387         147899   613            664            601            540            145481         1.319515e-12 
       278   2289.703          148607   614            665            600            541            146187         1.3220472e-12
       279   2313.0432         149315   614            666            600            542            146893         1.3246091e-12
       280   2336.9131         150010   614            666            597            545            147588         1.327142e-12 
       281   2360.6902         150730   614            668            598            545            148305         1.3297448e-12
       282   2384.6421         151441   615            667            597            548            149014         1.3324189e-12
       283   2408.6664         152149   616            666            595            551            149721         1.3349633e-12
       284   2432.799          152840   616            666            594            552            150412         1.3375386e-12
       285   2457.0558         153572   617            669            592            554            151140         1.3402444e-12
       286   2481.5167         154266   618            669            589            557            151833         1.3428062e-12
       287   2506.1135         155000   619            669            588            558            152566         1.3455238e-12
       288   2530.8795         155678   619            668            588            560            153243         1.3480023e-12
       289   2555.8582         156424   619            668            586            562            153989         1.3507862e-12
       290   2581.3387         157087   619            668            585            563            154652         1.3532392e-12
       291   2606.6324         157830   620            668            578            571            155393         1.3560429e-12
       292   2631.9732         158505   621            668            576            573            156067         1.3585723e-12
       293   2657.5484         159237   621            666            576            575            156799         1.3613644e-12
       294   2683.2558         159913   621            667            574            577            157474         1.3639364e-12
       295   2709.1761         160651   621            667            571            580            158212         1.3666496e-12
       296   2735.206          161318   621            667            570            581            158879         1.3692118e-12
       297   2761.4441         162053   621            666            567            585            159614         1.3719617e-12
       298   2787.8129         162724   622            666            567            585            160284         1.3744751e-12
       299   2814.3119         163449   622            666            566            586            161009         1.3772469e-12
       300   2841.3405         164115   623            667            566            587            161672         1.379721e-12 
Loop time of 2841.34 on 16 procs for 300 steps with 164115 atoms

96.7% CPU use with 16 MPI tasks x 1 OpenMP threads

MPI task timing breakdown:
Section |  min time  |  avg time  |  max time  |%varavg| %total
---------------------------------------------------------------
Pair    | 904.27     | 992.89     | 1127.2     | 199.8 | 34.94
Neigh   | 713.7      | 754        | 803.6      |  90.2 | 26.54
Comm    | 349.84     | 369.57     | 384.29     |  55.6 | 13.01
Output  | 44.374     | 44.374     | 44.376     |   0.0 |  1.56
Modify  | 510.45     | 670.35     | 755.78     | 264.3 | 23.59
Other   |            | 10.16      |            |       |  0.36

Nlocal:        10257.2 ave       10473 max       10042 min
Histogram: 2 1 2 2 2 1 1 1 1 3
Nghost:        7905.31 ave        8114 max        7744 min
Histogram: 1 2 4 1 3 2 0 0 2 1
Neighs:         125117 ave      129513 max      120066 min
Histogram: 2 0 1 3 3 0 3 0 1 3

Total # of neighbors = 2001875
Ave neighs/atom = 12.198001
Neighbor list builds = 26430
Dangerous builds = 26130

Total wall time: 0:47:53
