LAMMPS (23 Jun 2022 - Update 4)
  using 1 OpenMP thread(s) per MPI task
package omp 0
using multi-threaded neighbor list subroutines
#-----------------------------------------------------------------------------#
#                NUFEB Simulation: Heterotrophic Biofilm Growth               #
#-----------------------------------------------------------------------------#


#-----------------------------System Settings---------------------------------#

units si                                    # using si units (m, s, kg)
atom_style      coccus                      # using nufeb coccus atom style
atom_modify     map array sort 10 0         # map array - find atoms using indices
		                            # sort every 10

boundary        pp pp ff                    # periodic boundaries in x and y
                                            # fixed boundary in z

newton          off                         # forces between local and ghost
                                            # atoms are computed in each
					     # processor without communication

processors      * * 1                       # processor grid

comm_modify     vel yes                     # communicate velocities for ghost atoms

read_data       atom_ch.in	             # read atom.in file which defines domain size
Reading data file ...
  orthogonal box = (0 0 0) to (6e-05 6e-05 6e-05)
  4 by 4 by 1 MPI processor grid
  reading atoms ...
  150 atoms
  read_data CPU = 0.088 seconds
                                            # and initial atoms


#--------------------Microbes and Functional Groups-------------------------#

group           CROSS1   type 1               # assign type 1,2 atoms to CROSS group
50 atoms in group CROSS1
group           CROSS2   type 2
50 atoms in group CROSS2
group		CHEATER  type 3
50 atoms in group CHEATER
group           dead     type 4
0 atoms in group dead
group		EPS	 type 5
0 atoms in group EPS

neighbor        5e-7 bin                   # setting neighbour skin distance and style

neigh_modify    check yes                  # rebuild neighbour list if any atom
                                           # had moved more than half the skin distance


#--------------------------Mesh Grid and Substrates--------------------------#

# defining grid sytle, substrate names, and grid size
grid_style      nufeb/chemostat 3 sub metab1 metab2 5e-6

# set diffusion boundary conditions and initial concentrations (liquid:kg/m3)
grid_modify     set sub      pp pp nd  1.8e-4
No /omp style for force computation currently active
grid_modify     set metab1   pp pp nd  1e-4
No /omp style for force computation currently active
grid_modify     set metab2   pp pp nd  1e-4
No /omp style for force computation currently active


#--------------------------Biological Processes-------------------------------#

# heterotrophs growth
fix growth_cross1 CROSS1 nufeb/growth/cross1 sub 3.5e-5 metab2 4e-3 metab1 growth 0.009 yield 0.6 decay 2.6e-6 metab1_exp 20 epsyield 0.12 epsdens 30

fix growth_cross2 CROSS2 nufeb/growth/cross2 sub 3.5e-5 metab1 4e-3 metab2 growth 0.009 yield 0.6 decay 2.6e-6 metab2_exp 20 epsyield 0.12 epsdens 30

fix growth_cheater CHEATER nufeb/growth/cheater sub 3.5e-5 metab1 1e-3 metab2 1e-3 growth 0.009 yield 0.6 decay 2.6e-6 epsyield 0.12 epsdens 30

# heterotrophs division, division diameter: 1.36e-6
fix div1 CROSS1 nufeb/division/coccus 1.36e-6 128
fix div2 CROSS2 nufeb/division/coccus 1.36e-6 206
fix div3 CHEATER nufeb/division/coccus 1.36e-6 334

fix death1 CROSS1 nufeb/death/diameter dead 5.43e-7
fix death2 CROSS2 nufeb/death/diameter dead 5.43e-7
fix death3 CHEATER nufeb/death/diameter dead 5.43e-7

# EPS secretion from heterotrophs
fix eps1 CROSS1 nufeb/eps_secretion 5 EPS 1.1 30 512
fix eps2 CROSS2 nufeb/eps_secretion 5 EPS 1.1 30 740
fix eps3 CROSS2 nufeb/eps_secretion 5 EPS 1.1 30 1018
#---------------------------Physical Processes--------------------------------#

pair_style  gran/hooke/history 1e-4 NULL 1e-5 NULL 0.0 0    # pairwise interaction
pair_coeff  * *                                             # between atoms

# pairwise interaction between z-wall and atoms
fix wall all wall/gran hooke/history 1e-3 NULL 1e-4 NULL 0 0 zplane 0.0 1e-04

fix vis all viscous 1e-5                                    # viscous damping force

fix grav all gravity 9.81 vector 0.0 0.0 -1.0

fix nve all nve/limit 1e-7                                  # NVE integration with
                                                            # maximum distance limit


#---------------------------Post-Physical Processes---------------------------#

fix coeff_sub all nufeb/diffusion_coeff sub ratio 0.8       # defining diffusion coeff in the biofilm
fix coeff_metab1 all nufeb/diffusion_coeff metab1 ratio 0.8    # region is 80% of the value in liquid
fix coeff_metab2 all nufeb/diffusion_coeff metab2 ratio 0.8

#---------------------------Chemical Processes---------------------------------#

fix diff_sub all nufeb/diffusion_reaction sub 1e-9        # diffusion reaction for updating
fix diff_metab1 all nufeb/diffusion_reaction metab1 4e-9     # distribusion of substrate concentration
fix diff_metab2 all nufeb/diffusion_reaction metab2 4e-9

#--------------------------Computations and Outputs----------------------------#

variable mass equal "mass(all)"                             # total mass
variable ncross1 equal "count(CROSS1)"                      # total # of CROSS1
variable ncross2 equal "count(CROSS2)"                      # total # of CROSS2
variable ncheater equal "count(CHEATER)"
variable ndead equal "count(dead)"
variable neps equal "count(EPS)"

shell mkdir vtk_CHEPS_ch                                            # dump vtk files to /vtk folder
dump du1 all vtk 10 vtk_CHEPS_ch/dump*.vtu id type diameter         # require build NUFEB with vtk option
dump du2 all grid/vtk 10 vtk_CHEPS_ch/dump_%_*.vti con rea den gro

#dump du3 all movie 10 movie.avi type diameter view 80 60    # dump video
#dump_modify du3 acolor 1 blue acolor 2 lightgrey framerate 10


                                                            # dump hdf5 files to /hdf5 folder
#shell mkdir hdf5                                           # require build NUFEB with hdf5 option
#dump du3 all nufeb/hdf5 10 dump.h5 id type x y z vx vy vz fx fy fz radius conc reac

thermo_style custom step cpu atoms v_ncross1 v_ncross2 v_ncheater v_ndead v_neps v_mass     # screen and log outputs
thermo 1
thermo_modify   lost ignore

#-----------------------------------Run----------------------------------------#

# issue run command, define timesteps for physical (pairdt) and chemical (diffdt) processes
run_style nufeb diffdt 1e-4 difftol 1e-6 pairdt 1e-2 pairtol 1 pairmax 1000 diffmax 5000

timestep 12000                                               # define biological timesteps (1000s)

run 300                                                    # growing biofilm for 900x1000s
Generated 0 of 6 mixed pair_coeff terms from geometric mixing rule
Last active /omp style is pair_style gran/hooke/history/omp
Neighbor list info ...
  update every 1 steps, delay 10 steps, check yes
  max neighbors/atom: 2000, page size: 100000
  master list distance cutoff = 2.49e-06
  ghost atom cutoff = 2.49e-06
  binsize = 1.245e-06, bins = 49 49 49
  1 neighbor lists, perpetual/occasional/extra = 1 0 0
  (1) pair gran/hooke/history/omp, perpetual
      attributes: half, newton off, size, history, omp
      pair build: half/size/bin/newtoff/omp
      stencil: full/bin/3d
      bin: standard
Per MPI rank memory allocation (min/avg/max) = 11.02 | 11.02 | 11.02 Mbytes
   Step          CPU          Atoms      v_ncross1      v_ncross2      v_ncheater      v_ndead         v_neps         v_mass    
         0   0                    150   50             50             50             0              0              1.3295396e-13
         1   0.38722673           495   90             85             83             0              237            1.6431953e-13
         2   0.75833565           916   120            126            124            0              546            1.8162408e-13
         3   1.054615            1243   130            140            140            0              833            1.9576999e-13
         4   1.3446353           1577   140            148            149            0              1140           2.08947e-13  
         5   1.5296125           1905   145            158            151            0              1451           2.2167567e-13
         6   1.7079463           2236   149            166            159            0              1762           2.3409027e-13
         7   1.8447611           2596   159            176            169            0              2092           2.4631757e-13
         8   1.9602887           2941   165            181            176            0              2419           2.5824881e-13
         9   2.1043104           3325   175            199            185            0              2766           2.699383e-13 
        10   2.2924828           3720   181            210            190            0              3139           2.8148151e-13
        11   2.4015079           4118   189            220            194            0              3515           2.9257331e-13
        12   2.5017067           4514   191            227            200            0              3896           3.0351383e-13
        13   2.5939418           4916   196            233            207            0              4280           3.1418259e-13
        14   2.7097335           5329   202            239            218            0              4670           3.2476099e-13
        15   2.7959719           5742   205            244            225            0              5068           3.3505993e-13
        16   2.8915321           6135   211            244            230            0              5450           3.4507559e-13
        17   2.9743818           6535   214            248            237            0              5836           3.549233e-13 
        18   3.0899323           6941   217            252            243            0              6229           3.6458609e-13
        19   3.2060274           7340   224            257            250            0              6609           3.740213e-13 
        20   3.3479432           7732   228            260            254            0              6990           3.8335187e-13
        21   3.422682            8141   231            267            260            0              7383           3.9251347e-13
        22   3.5252899           8538   234            272            268            0              7764           4.0149866e-13
        23   3.6052397           8955   243            277            284            0              8151           4.1030287e-13
        24   3.6924862           9363   250            282            289            0              8542           4.1886004e-13
        25   3.8062941           9772   254            285            298            0              8935           4.2730603e-13
        26   3.9153421          10198   263            290            304            0              9341           4.3566073e-13
        27   4.0469061          10619   267            295            310            0              9747           4.4376954e-13
        28   4.144162           11042   272            302            315            0              10153          4.5167891e-13
        29   4.3077339          11454   276            305            317            0              10556          4.5939755e-13
        30   15.690429          11867   279            309            323            0              10956          4.6690638e-13
        31   15.84438           12296   286            310            326            0              11374          4.743359e-13 
        32   15.965776          12701   287            313            328            0              11773          4.8136452e-13
        33   16.105241          13125   290            319            330            0              12186          4.8822547e-13
        34   16.227027          13545   294            323            336            0              12592          4.9497911e-13
        35   16.414228          13996   299            325            342            0              13030          5.016655e-13 
        36   16.837317          14412   300            334            346            0              13432          5.0810067e-13
        37   17.246869          14857   304            338            352            0              13863          5.142927e-13 
        38   17.827419          15283   305            342            358            0              14278          5.2042317e-13
        39   18.404958          15733   309            343            365            0              14716          5.2647206e-13
        40   38.249951          16147   312            344            371            0              15120          5.3226082e-13
        41   39.09989           16578   313            346            377            0              15542          5.3799914e-13
        42   39.971402          17015   314            349            383            0              15969          5.4361844e-13
        43   40.858871          17439   322            353            384            0              16380          5.4890517e-13
        44   41.743941          17880   323            354            386            0              16817          5.5443939e-13
        45   42.657875          18292   324            356            388            0              17224          5.5987524e-13
        46   43.56833           18725   326            356            390            0              17653          5.6509964e-13
        47   44.518806          19163   329            358            397            0              18079          5.7032918e-13
        48   45.490384          19595   335            360            399            0              18501          5.7557263e-13
        49   46.510736          20039   335            365            407            0              18932          5.8068761e-13
        50   47.61282           20473   337            366            412            0              19358          5.8562314e-13
        51   48.664153          20912   343            367            415            0              19787          5.9041486e-13
        52   49.725063          21342   343            368            419            0              20212          5.9515377e-13
        53   50.825768          21799   346            372            422            0              20659          5.9988457e-13
        54   51.946964          22231   347            374            425            0              21085          6.0442262e-13
        55   53.093567          22677   350            374            428            0              21525          6.0900367e-13
        56   54.264171          23096   350            375            433            0              21938          6.1327902e-13
        57   55.46308           23540   350            377            436            0              22377          6.1765471e-13
        58   56.661855          23985   354            380            438            0              22813          6.2179512e-13
        59   57.890971          24426   359            383            440            0              23244          6.2587397e-13
        60   59.241528          24881   360            384            441            0              23696          6.3008226e-13
        61   60.5824            25309   361            386            444            0              24118          6.3406572e-13
        62   61.892593          25775   363            388            447            0              24577          6.3808909e-13
        63   63.252171          26202   364            389            451            0              24998          6.4187991e-13
        64   64.61791           26671   367            390            454            0              25460          6.4573607e-13
        65   65.995817          27093   368            393            456            0              25876          6.492458e-13 
        66   67.408147          27572   371            396            459            0              26346          6.5301314e-13
        67   68.8601            28018   377            398            462            0              26781          6.564716e-13 
        68   70.337086          28496   381            401            462            0              27252          6.6003689e-13
        69   71.846359          28947   383            402            467            0              27695          6.6348436e-13
        70   73.460581          29423   386            403            469            0              28165          6.6694576e-13
        71   75.041097          29871   387            405            472            0              28607          6.7020927e-13
        72   76.672692          30337   389            405            478            0              29065          6.7355827e-13
        73   78.339509          30803   391            406            482            0              29524          6.7693669e-13
        74   80.020642          31269   393            406            485            0              29985          6.8035596e-13
        75   81.751691          31715   393            408            485            0              30429          6.8357412e-13
        76   83.514122          32195   395            410            487            0              30903          6.8683099e-13
        77   85.303814          32630   395            410            489            0              31336          6.9000752e-13
        78   87.124155          33113   396            412            491            0              31814          6.9334807e-13
        79   88.981228          33570   398            414            492            0              32266          6.9654727e-13
        80   90.964015          34050   400            416            494            0              32740          6.9982932e-13
        81   92.974244          34518   402            419            499            0              33198          7.0296595e-13
        82   95.047984          34967   404            419            501            0              33643          7.0600057e-13
        83   97.109565          35445   406            420            505            0              34114          7.0896128e-13
        84   99.247172          35912   407            422            506            0              34577          7.1193754e-13
        85   101.35627          36372   410            427            510            0              35025          7.1506752e-13
        86   103.53812          36846   411            429            511            0              35495          7.1825216e-13
        87   105.73633          37309   413            431            518            0              35947          7.2168575e-13
        88   107.98204          37782   414            432            520            0              36416          7.2510955e-13
        89   110.34597          38231   417            432            522            0              36860          7.2844887e-13
        90   112.77405          38717   420            433            527            0              37337          7.3212808e-13
        91   115.22851          39169   423            434            532            0              37780          7.3570966e-13
        92   117.71188          39660   425            434            536            0              38265          7.3956837e-13
        93   120.23731          40109   426            436            548            0              38699          7.4351415e-13
        94   122.84295          40597   430            439            554            0              39174          7.4793188e-13
        95   125.50054          41053   432            439            561            0              39621          7.5261934e-13
        96   128.24939          41521   434            440            570            0              40077          7.5761115e-13
        97   131.04037          41976   435            441            582            0              40518          7.6283481e-13
        98   133.82858          42431   435            442            595            0              40959          7.6822677e-13
        99   136.7507           42886   439            444            606            0              41397          7.7375643e-13
       100   139.78136          43361   440            446            621            0              41854          7.7975527e-13
       101   142.79868          43780   442            449            631            0              42258          7.8551381e-13
       102   145.74687          44250   444            453            642            0              42711          7.9168262e-13
       103   148.81511          44679   446            456            653            0              43124          7.9778998e-13
       104   151.93356          45124   448            458            672            0              43546          8.0404892e-13
       105   155.05245          45572   451            462            687            0              43972          8.1053181e-13
       106   158.26761          46022   456            466            703            0              44397          8.1691103e-13
       107   161.53445          46465   459            472            715            0              44819          8.2314563e-13
       108   164.88524          46920   463            475            730            0              45252          8.2941262e-13
       109   168.24724          47378   468            480            740            1              45689          8.3544843e-13
       110   171.80251          47824   471            485            752            2              46114          8.4107576e-13
       111   175.23736          48273   476            485            764            4              46544          8.4677216e-13
       112   178.71402          48715   481            488            770            4              46972          8.5225886e-13
       113   182.30799          49200   484            489            779            5              47443          8.5775221e-13
       114   186.0456           49659   490            493            786            7              47883          8.629975e-13 
       115   189.8067           50124   494            496            791            10             48333          8.6804974e-13
       116   193.61678          50603   499            498            800            10             48796          8.7286338e-13
       117   197.49858          51058   504            499            809            10             49236          8.7754968e-13
       118   201.50168          51560   510            505            814            12             49719          8.8222542e-13
       119   205.53611          52045   512            509            820            15             50189          8.8654643e-13
       120   209.78438          52542   516            510            822            18             50676          8.9065155e-13
       121   213.95665          53035   519            511            821            23             51161          8.9453503e-13
       122   218.26075          53562   523            512            822            29             51676          8.9820355e-13
       123   222.58311          54081   525            515            824            31             52186          9.0141944e-13
       124   227.00378          54622   528            516            822            36             52720          9.0445674e-13
       125   231.48479          55144   529            518            824            37             53236          9.0718302e-13
       126   236.0404           55717   532            519            823            38             53805          9.0984267e-13
       127   240.69469          56260   533            520            816            46             54345          9.1225319e-13
       128   245.43844          56831   535            522            817            49             54908          9.1452434e-13
       129   250.26817          57424   535            524            815            52             55498          9.1682843e-13
       130   255.28532          58004   536            524            811            57             56076          9.1898511e-13
       131   260.28566          58591   537            524            808            61             56661          9.211047e-13 
       132   265.40747          59199   537            524            805            64             57269          9.2324285e-13
       133   270.59319          59768   537            524            802            67             57838          9.25096e-13  
       134   275.87824          60408   537            525            801            69             58476          9.2726937e-13
       135   281.27739          60988   539            525            796            76             59052          9.2900275e-13
       136   286.77748          61609   541            526            795            77             59670          9.3087448e-13
       137   292.38237          62204   541            526            795            79             60263          9.3270159e-13
       138   298.10081          62833   542            526            792            82             60891          9.3461169e-13
       139   303.92401          63405   543            527            788            86             61461          9.3636574e-13
       140   309.98524          64028   544            528            786            88             62082          9.3829746e-13
       141   316.02715          64633   546            528            785            89             62685          9.4022703e-13
       142   322.1942           65224   546            528            784            90             63276          9.4214698e-13
       143   328.44403          65854   547            529            781            93             63904          9.4424735e-13
       144   334.79757          66423   549            529            779            95             64471          9.4600581e-13
       145   341.28656          67059   549            530            776            99             65105          9.4817809e-13
       146   347.87488          67631   550            531            775            101            65674          9.5001154e-13
       147   354.57429          68256   550            531            775            103            66297          9.5206178e-13
       148   361.37296          68834   550            532            773            105            66874          9.5393307e-13
       149   368.30782          69456   550            532            772            106            67496          9.5599368e-13
       150   375.50922          70019   551            533            770            108            68057          9.5787491e-13
       151   382.63699          70657   551            533            766            112            68695          9.6010952e-13
       152   389.92826          71213   551            533            765            115            69249          9.6202064e-13
       153   397.27842          71835   552            533            763            117            69870          9.642258e-13 
       154   404.75167          72405   552            533            760            123            70437          9.6619838e-13
       155   412.34675          73021   554            533            757            126            71051          9.6835313e-13
       156   420.04258          73621   555            533            756            127            71650          9.7042047e-13
       157   427.84341          74200   555            534            753            130            72228          9.7246231e-13
       158   435.79291          74814   556            538            752            131            72837          9.745873e-13 
       159   443.84179          75413   556            538            750            133            73436          9.766686e-13 
       160   452.15024          76000   559            539            747            137            74018          9.787326e-13 
       161   460.38233          76607   559            541            744            140            74623          9.8086254e-13
       162   468.76054          77207   559            541            741            143            75223          9.829169e-13 
       163   477.22969          77810   560            541            738            146            75825          9.8510831e-13
       164   485.80657          78392   560            541            732            154            76405          9.8708966e-13
       165   494.48501          78996   560            541            728            158            77009          9.893387e-13 
       166   503.24976          79580   560            541            727            159            77593          9.9134524e-13
       167   512.12443          80198   560            542            724            162            78210          9.935946e-13 
       168   521.12053          80782   560            542            724            163            78793          9.9565379e-13
       169   530.19706          81376   560            542            724            163            79387          9.9778607e-13
       170   539.58897          81988   561            544            724            164            79995          9.9995379e-13
       171   548.85509          82579   561            545            722            166            80585          1.0020996e-12
       172   558.31188          83180   562            545            722            166            81185          1.0042587e-12
       173   567.89504          83782   563            546            720            168            81785          1.0064817e-12
       174   577.54041          84384   563            546            717            171            82387          1.0086925e-12
       175   587.3126           84995   564            547            716            173            82995          1.0109053e-12
       176   597.17819          85600   564            547            711            178            83600          1.0131251e-12
       177   607.12602          86201   564            547            707            182            84201          1.0153461e-12
       178   617.20826          86803   564            548            705            184            84802          1.0175223e-12
       179   627.3859           87393   566            549            703            186            85389          1.0197365e-12
       180   637.91356          88021   566            551            702            188            86014          1.0220369e-12
       181   648.37107          88592   566            551            701            189            86585          1.0241712e-12
       182   658.99347          89226   566            551            700            192            87217          1.0264797e-12
       183   669.66724          89807   567            552            696            197            87795          1.0287081e-12
       184   680.41523          90414   568            552            693            200            88401          1.0309453e-12
       185   691.27578          91019   570            553            693            202            89001          1.0332117e-12
       186   702.2554           91638   570            553            690            205            89620          1.0355392e-12
       187   713.30245          92223   572            553            690            206            90202          1.0377203e-12
       188   724.47949          92851   573            555            687            209            90827          1.040015e-12 
       189   735.77094          93446   573            555            686            211            91421          1.0422211e-12
       190   747.35474          94073   574            556            680            217            92046          1.0445544e-12
       191   758.82468          94682   576            557            676            221            92652          1.0468219e-12
       192   770.49938          95307   577            557            678            222            93273          1.0491116e-12
       193   782.26052          95899   577            557            674            227            93864          1.051369e-12 
       194   794.09959          96531   578            557            671            231            94494          1.053729e-12 
       195   806.06397          97131   579            558            672            231            95091          1.0559905e-12
       196   818.23182          97754   580            558            670            234            95712          1.0583242e-12
       197   830.50779          98369   580            558            667            237            96327          1.0606678e-12
       198   842.90297          98984   580            558            667            238            96941          1.0630212e-12
       199   855.36651          99591   581            558            667            238            97547          1.0653023e-12
       200   868.21939         100210   581            558            662            243            98166          1.0676812e-12
       201   880.93092         100807   581            558            659            246            98763          1.0699383e-12
       202   893.81247         101419   581            559            654            251            99374          1.0723355e-12
       203   906.78456         102052   582            560            649            257            100004         1.0747389e-12
       204   919.86707         102647   582            560            647            259            100599         1.0770406e-12
       205   933.05648         103268   582            560            646            261            101219         1.0794156e-12
       206   946.36797         103871   582            560            644            264            101821         1.0817628e-12
       207   959.84382         104487   583            560            640            269            102435         1.0841676e-12
       208   973.42363         105091   583            561            636            273            103038         1.0865157e-12
       209   987.09897         105706   585            561            631            278            103651         1.0888941e-12
       210   1001.1592         106332   585            561            628            282            104276         1.0912831e-12
       211   1015.0465         106923   585            562            623            287            104866         1.0936047e-12
       212   1029.0592         107569   587            562            624            288            105508         1.0960882e-12
       213   1043.1981         108166   587            562            622            290            106105         1.0984395e-12
       214   1057.4828         108785   587            562            618            295            106723         1.1009276e-12
       215   1071.8771         109391   589            563            616            297            107326         1.1033009e-12
       216   1086.3842         110008   589            563            611            302            107943         1.1058251e-12
       217   1101.0212         110618   589            563            610            304            108552         1.1083206e-12
       218   1115.8206         111236   590            564            609            307            109166         1.1108558e-12
       219   1130.7208         111858   592            564            607            309            109786         1.1134891e-12
       220   1145.9898         112480   593            565            604            315            110403         1.1163359e-12
       221   1161.1331         113121   594            565            603            319            111040         1.1190644e-12
       222   1176.4105         113747   593            565            601            324            111664         1.1219141e-12
       223   1191.8654         114346   593            565            599            326            112263         1.1246953e-12
       224   1207.4211         114980   593            565            599            332            112891         1.1280868e-12
       225   1223.0474         115588   593            565            599            334            113497         1.131565e-12 
       226   1238.7951         116199   593            565            601            336            114104         1.135116e-12 
       227   1254.6859         116812   593            566            602            340            114711         1.1386702e-12
       228   1270.6643         117433   594            566            605            344            115324         1.1425149e-12
       229   1286.7545         118044   594            566            602            349            115933         1.1465392e-12
       230   1303.4177         118658   595            567            608            353            116535         1.1507237e-12
       231   1319.7951         119273   597            567            615            357            117137         1.1553285e-12
       232   1336.3488         119879   597            567            614            363            117738         1.160054e-12 
       233   1353.0029         120498   599            567            624            364            118344         1.1652084e-12
       234   1369.7696         121097   600            567            630            368            118932         1.1707038e-12
       235   1386.6892         121711   601            567            639            372            119532         1.176691e-12 
       236   1403.7293         122292   602            568            649            373            120100         1.1829706e-12
       237   1420.9102         122892   602            567            662            379            120682         1.1894059e-12
       238   1438.2136         123495   603            569            678            383            121262         1.1963193e-12
       239   1455.6656         124082   604            569            690            384            121835         1.2035628e-12
       240   1473.4951         124648   607            570            703            386            122382         1.2110546e-12
       241   1491.2238         125246   608            571            710            394            122963         1.2187958e-12
       242   1509.0417         125803   613            571            727            398            123494         1.226418e-12 
       243   1526.9244         126357   615            573            743            399            124027         1.2342499e-12
       244   1545.0034         126914   617            574            757            405            124561         1.2419589e-12
       245   1563.1611         127474   620            577            767            412            125098         1.2496386e-12
       246   1581.4666         128027   622            580            773            415            125637         1.2570564e-12
       247   1599.8453         128571   626            583            786            419            126157         1.2639542e-12
       248   1618.2863         129117   629            588            790            426            126684         1.2702738e-12
       249   1636.9082         129676   632            590            797            431            127226         1.2765243e-12
       250   1655.9855         130209   638            595            807            435            127734         1.2824866e-12
       251   1674.7552         130733   642            600            813            443            128235         1.2872918e-12
       252   1693.6394         131292   648            601            811            449            128783         1.291669e-12 
       253   1712.741          131862   651            606            810            456            129339         1.2959117e-12
       254   1731.9192         132441   651            608            804            464            129914         1.2995878e-12
       255   1751.1882         133020   655            611            803            471            130480         1.3029605e-12
       256   1770.6112         133648   655            614            800            482            131097         1.3062445e-12
       257   1790.1407         134267   655            614            799            485            131714         1.3092019e-12
       258   1809.8912         134936   661            613            799            487            132376         1.3119303e-12
       259   1829.6578         135607   661            612            793            496            133045         1.3144291e-12
       260   1849.8964         136286   659            610            788            505            133724         1.3167495e-12
       261   1870.0156         136995   661            609            788            508            134429         1.319122e-12 
       262   1890.273          137688   662            611            782            515            135118         1.3214113e-12
       263   1910.6813         138396   665            611            779            518            135823         1.323654e-12 
       264   1931.2352         139097   666            609            780            520            136522         1.3258872e-12
       265   1951.9851         139834   667            609            777            523            137258         1.3282623e-12
       266   1972.6988         140549   666            610            775            527            137971         1.3304772e-12
       267   1993.6353         141298   666            611            772            530            138719         1.3329571e-12
       268   2014.6312         141998   665            611            770            534            139418         1.3351648e-12
       269   2035.8535         142756   665            611            767            537            140176         1.3376172e-12
       270   2057.5225         143453   665            613            765            539            140871         1.3398271e-12
       271   2079.0823         144178   665            613            763            541            141596         1.3422167e-12
       272   2100.7053         144899   665            613            761            543            142317         1.3445936e-12
       273   2122.4763         145616   666            612            761            545            143032         1.3469496e-12
       274   2144.4904         146330   665            612            762            547            143744         1.3492954e-12
       275   2166.6767         147047   665            612            760            550            144460         1.3516688e-12
       276   2188.9977         147769   665            611            758            553            145182         1.3540563e-12
       277   2211.5205         148486   665            611            757            555            145898         1.35651e-12  
       278   2234.088          149185   665            611            756            556            146597         1.3587678e-12
       279   2256.7827         149913   664            611            753            560            147325         1.3612886e-12
       280   2279.9584         150611   664            611            750            564            148022         1.3635738e-12
       281   2302.9898         151336   664            611            748            567            148746         1.3660723e-12
       282   2326.2072         152037   664            611            748            567            149447         1.3684555e-12
       283   2349.5748         152753   663            611            746            570            150163         1.3708803e-12
       284   2373.1075         153442   663            611            745            571            150852         1.3732115e-12
       285   2396.8635         154152   663            611            744            572            151562         1.3756669e-12
       286   2420.7686         154855   663            612            744            572            152264         1.3781045e-12
       287   2444.8127         155558   663            612            742            574            152967         1.3805419e-12
       288   2469.0505         156259   664            612            741            575            153667         1.3829099e-12
       289   2493.407          156977   664            613            737            579            154384         1.3854288e-12
       290   2518.3652         157677   666            613            734            582            155082         1.3878286e-12
       291   2543.1389         158384   666            613            733            583            155789         1.3903092e-12
       292   2568.0501         159098   666            613            733            583            156503         1.3927571e-12
       293   2593.1177         159787   667            614            731            585            157190         1.3951785e-12
       294   2618.3818         160506   667            616            729            587            157907         1.3976242e-12
       295   2643.7886         161216   668            617            729            587            158615         1.4001559e-12
       296   2669.3428         161924   668            617            728            588            159323         1.4025713e-12
       297   2695.0719         162631   668            618            724            592            160029         1.4050949e-12
       298   2721.0255         163346   670            618            721            596            160741         1.407549e-12 
       299   2747.1175         164041   670            618            720            597            161436         1.4100625e-12
       300   2773.7554         164748   670            618            718            599            162143         1.4125573e-12
Loop time of 2773.76 on 16 procs for 300 steps with 164748 atoms

96.9% CPU use with 16 MPI tasks x 1 OpenMP threads

MPI task timing breakdown:
Section |  min time  |  avg time  |  max time  |%varavg| %total
---------------------------------------------------------------
Pair    | 878.95     | 973.24     | 1039.1     | 134.4 | 35.09
Neigh   | 720.97     | 770.45     | 841.57     | 122.5 | 27.78
Comm    | 344.75     | 356.09     | 366.77     |  28.1 | 12.84
Output  | 35.85      | 35.85      | 35.851     |   0.0 |  1.29
Modify  | 495.47     | 627.89     | 769.64     | 283.7 | 22.64
Other   |            | 10.24      |            |       |  0.37

Nlocal:        10296.8 ave       10616 max        9955 min
Histogram: 2 1 1 2 2 2 1 1 2 2
Nghost:           7946 ave        8218 max        7786 min
Histogram: 3 3 2 2 1 2 0 1 0 2
Neighs:         127005 ave      134939 max      119944 min
Histogram: 3 0 2 2 1 3 1 1 2 1

Total # of neighbors = 2032077
Ave neighs/atom = 12.334456
Neighbor list builds = 26433
Dangerous builds = 26133

Total wall time: 0:46:44
