LAMMPS (23 Jun 2022 - Update 4)
  using 1 OpenMP thread(s) per MPI task
package omp 0
using multi-threaded neighbor list subroutines
#-----------------------------------------------------------------------------#
#                NUFEB Simulation: Heterotrophic Biofilm Growth               #
#-----------------------------------------------------------------------------#


#-----------------------------System Settings---------------------------------#

units si                                    # using si units (m, s, kg)
atom_style      coccus                      # using nufeb coccus atom style
atom_modify     map array sort 10 0         # map array - find atoms using indices
		                            # sort every 10

boundary        pp pp ff                    # periodic boundaries in x and y
                                            # fixed boundary in z

newton          off                         # forces between local and ghost
                                            # atoms are computed in each
					     # processor without communication

processors      * * 1                       # processor grid

comm_modify     vel yes                     # communicate velocities for ghost atoms

read_data       atom_ch.in	             # read atom.in file which defines domain size
Reading data file ...
  orthogonal box = (0 0 0) to (6e-05 6e-05 6e-05)
  4 by 4 by 1 MPI processor grid
  reading atoms ...
  150 atoms
  read_data CPU = 0.024 seconds
                                            # and initial atoms


#--------------------Microbes and Functional Groups-------------------------#

group           CROSS1   type 1               # assign type 1,2 atoms to CROSS group
50 atoms in group CROSS1
group           CROSS2   type 2
50 atoms in group CROSS2
group		CHEATER  type 3
50 atoms in group CHEATER
group           dead     type 4
0 atoms in group dead
group		EPS	 type 5
0 atoms in group EPS

neighbor        5e-7 bin                   # setting neighbour skin distance and style

neigh_modify    check yes                  # rebuild neighbour list if any atom
                                           # had moved more than half the skin distance


#--------------------------Mesh Grid and Substrates--------------------------#

# defining grid sytle, substrate names, and grid size
grid_style      nufeb/chemostat 3 sub metab1 metab2 5e-6

# set diffusion boundary conditions and initial concentrations (liquid:kg/m3)
grid_modify     set sub      pp pp nd  1.8e-4
No /omp style for force computation currently active
grid_modify     set metab1   pp pp nd  1e-4
No /omp style for force computation currently active
grid_modify     set metab2   pp pp nd  1e-4
No /omp style for force computation currently active


#--------------------------Biological Processes-------------------------------#

# heterotrophs growth
fix growth_cross1 CROSS1 nufeb/growth/cross1 sub 3.5e-5 metab2 4e-3 metab1 growth 0.009 yield 0.6 decay 2.6e-6 metab1_exp 20 epsyield 0.12 epsdens 30

fix growth_cross2 CROSS2 nufeb/growth/cross2 sub 3.5e-5 metab1 4e-3 metab2 growth 0.009 yield 0.6 decay 2.6e-6 metab2_exp 20 epsyield 0.12 epsdens 30

fix growth_cheater CHEATER nufeb/growth/cheater sub 3.5e-5 metab1 1e-3 metab2 1e-3 growth 0.009 yield 0.6 decay 2.6e-6 epsyield 0.12 epsdens 30

# heterotrophs division, division diameter: 1.36e-6
fix div1 CROSS1 nufeb/division/coccus 1.36e-6 728
fix div2 CROSS2 nufeb/division/coccus 1.36e-6 2606
fix div3 CHEATER nufeb/division/coccus 1.36e-6 5734

fix death1 CROSS1 nufeb/death/diameter dead 5.43e-7
fix death2 CROSS2 nufeb/death/diameter dead 5.43e-7
fix death3 CHEATER nufeb/death/diameter dead 5.43e-7

# EPS secretion from heterotrophs
fix eps1 CROSS1 nufeb/eps_secretion 5 EPS 1.1 30 10112
fix eps2 CROSS2 nufeb/eps_secretion 5 EPS 1.1 30 15740
fix eps3 CROSS2 nufeb/eps_secretion 5 EPS 1.1 30 22618
#---------------------------Physical Processes--------------------------------#

pair_style  gran/hooke/history 1e-4 NULL 1e-5 NULL 0.0 0    # pairwise interaction
pair_coeff  * *                                             # between atoms

# pairwise interaction between z-wall and atoms
fix wall all wall/gran hooke/history 1e-3 NULL 1e-4 NULL 0 0 zplane 0.0 1e-04

fix vis all viscous 1e-5                                    # viscous damping force

fix grav all gravity 9.81 vector 0.0 0.0 -1.0

fix nve all nve/limit 1e-7                                  # NVE integration with
                                                            # maximum distance limit


#---------------------------Post-Physical Processes---------------------------#

fix coeff_sub all nufeb/diffusion_coeff sub ratio 0.8       # defining diffusion coeff in the biofilm
fix coeff_metab1 all nufeb/diffusion_coeff metab1 ratio 0.8    # region is 80% of the value in liquid
fix coeff_metab2 all nufeb/diffusion_coeff metab2 ratio 0.8

#---------------------------Chemical Processes---------------------------------#

fix diff_sub all nufeb/diffusion_reaction sub 1e-9        # diffusion reaction for updating
fix diff_metab1 all nufeb/diffusion_reaction metab1 4e-9     # distribusion of substrate concentration
fix diff_metab2 all nufeb/diffusion_reaction metab2 4e-9

#--------------------------Computations and Outputs----------------------------#

variable mass equal "mass(all)"                             # total mass
variable ncross1 equal "count(CROSS1)"                      # total # of CROSS1
variable ncross2 equal "count(CROSS2)"                      # total # of CROSS2
variable ncheater equal "count(CHEATER)"
variable ndead equal "count(dead)"
variable neps equal "count(EPS)"

shell mkdir vtk_CHEPS_ch                                            # dump vtk files to /vtk folder
dump du1 all vtk 10 vtk_CHEPS_ch/dump*.vtu id type diameter         # require build NUFEB with vtk option
dump du2 all grid/vtk 10 vtk_CHEPS_ch/dump_%_*.vti con rea den gro

#dump du3 all movie 10 movie.avi type diameter view 80 60    # dump video
#dump_modify du3 acolor 1 blue acolor 2 lightgrey framerate 10


                                                            # dump hdf5 files to /hdf5 folder
#shell mkdir hdf5                                           # require build NUFEB with hdf5 option
#dump du3 all nufeb/hdf5 10 dump.h5 id type x y z vx vy vz fx fy fz radius conc reac

thermo_style custom step cpu atoms v_ncross1 v_ncross2 v_ncheater v_ndead v_neps v_mass     # screen and log outputs
thermo 1
thermo_modify   lost ignore

#-----------------------------------Run----------------------------------------#

# issue run command, define timesteps for physical (pairdt) and chemical (diffdt) processes
run_style nufeb diffdt 1e-4 difftol 1e-6 pairdt 1e-2 pairtol 1 pairmax 1000 diffmax 5000

timestep 12000                                               # define biological timesteps (1000s)

run 300                                                    # growing biofilm for 900x1000s
Generated 0 of 6 mixed pair_coeff terms from geometric mixing rule
Last active /omp style is pair_style gran/hooke/history/omp
Neighbor list info ...
  update every 1 steps, delay 10 steps, check yes
  max neighbors/atom: 2000, page size: 100000
  master list distance cutoff = 2.49e-06
  ghost atom cutoff = 2.49e-06
  binsize = 1.245e-06, bins = 49 49 49
  1 neighbor lists, perpetual/occasional/extra = 1 0 0
  (1) pair gran/hooke/history/omp, perpetual
      attributes: half, newton off, size, history, omp
      pair build: half/size/bin/newtoff/omp
      stencil: full/bin/3d
      bin: standard
Per MPI rank memory allocation (min/avg/max) = 11.02 | 11.02 | 11.02 Mbytes
   Step          CPU          Atoms      v_ncross1      v_ncross2      v_ncheater      v_ndead         v_neps         v_mass    
         0   0                    150   50             50             50             0              0              1.3295396e-13
         1   0.38583236           487   90             85             83             0              229            1.6428741e-13
         2   0.75489973           899   120            126            123            0              530            1.8155991e-13
         3   1.0550887           1235   130            142            141            0              822            1.9579092e-13
         4   1.3396227           1565   139            153            150            0              1123           2.0892823e-13
         5   1.5535019           1877   142            159            157            0              1419           2.2153606e-13
         6   1.688552            2211   148            168            161            0              1734           2.3383182e-13
         7   1.8020011           2577   160            178            168            0              2071           2.4587702e-13
         8   1.9643069           2938   170            188            171            0              2409           2.5770144e-13
         9   2.1087446           3307   176            195            179            0              2757           2.6925629e-13
        10   2.2618327           3698   182            206            183            0              3127           2.8063018e-13
        11   2.3679811           4083   185            216            193            0              3489           2.9178317e-13
        12   2.487618            4478   190            220            204            0              3864           3.0276235e-13
        13   2.5858072           4867   192            226            209            0              4240           3.1354376e-13
        14   2.7037158           5252   196            232            213            0              4611           3.2412252e-13
        15   2.8023825           5662   200            238            222            0              5002           3.3459464e-13
        16   2.903287            6069   207            245            226            0              5391           3.4478807e-13
        17   3.0047167           6470   213            251            234            0              5772           3.5471468e-13
        18   3.1259557           6893   221            254            240            0              6178           3.6458329e-13
        19   3.2658738           7296   230            259            247            0              6560           3.7421185e-13
        20   3.3994946           7713   234            264            258            0              6957           3.8351124e-13
        21   3.5166032           8120   240            273            263            0              7344           3.9245445e-13
        22   3.6348222           8547   246            278            269            0              7754           4.0133848e-13
        23   3.7217184           8974   251            283            280            0              8160           4.0988494e-13
        24   3.8496119           9408   254            287            291            0              8576           4.1833501e-13
        25   3.9406902           9789   258            289            295            0              8947           4.2640187e-13
        26   4.0381427          10216   264            293            298            0              9361           4.3453442e-13
        27   4.1427568          10639   268            295            301            0              9775           4.4252854e-13
        28   4.237387           11034   269            302            306            0              10157          4.5019284e-13
        29   4.3287783          11465   273            304            310            0              10578          4.5793247e-13
        30   4.4774204          11870   277            307            317            0              10969          4.653461e-13 
        31   4.5830381          12317   282            311            325            0              11399          4.7280271e-13
        32   4.7069133          12720   289            312            329            0              11790          4.7988873e-13
        33   4.8491136          13157   292            312            334            0              12219          4.8704431e-13
        34   5.0242936          13564   296            315            337            0              12616          4.9388959e-13
        35   5.2628165          14007   300            317            345            0              13045          5.0082198e-13
        36   5.5415837          14411   301            318            353            0              13439          5.0739379e-13
        37   6.0327072          14839   303            321            358            0              13857          5.1405702e-13
        38   6.4145308          15255   306            322            366            0              14261          5.2045221e-13
        39   7.1312192          15699   311            327            371            0              14690          5.267238e-13 
        40   7.995991           16102   315            327            373            0              15087          5.3254039e-13
        41   8.8260682          16547   318            330            377            0              15522          5.3852256e-13
        42   9.7027209          16976   321            334            383            0              15938          5.4444761e-13
        43   10.575532          17399   322            336            386            0              16355          5.5009358e-13
        44   11.458466          17815   328            338            389            0              16760          5.5552382e-13
        45   12.356841          18257   330            341            394            0              17192          5.6088351e-13
        46   13.289056          18682   336            345            396            0              17605          5.659106e-13 
        47   14.267076          19148   337            349            399            0              18063          5.7099059e-13
        48   15.215539          19565   340            352            402            0              18471          5.7555837e-13
        49   16.176809          20014   344            353            402            0              18915          5.8024776e-13
        50   56.971236          20433   345            355            408            0              19325          5.8462563e-13
        51   57.996798          20869   347            355            411            0              19756          5.890511e-13 
        52   59.03111           21308   352            357            413            0              20186          5.9342737e-13
        53   60.11317           21758   356            359            414            0              20629          5.9774855e-13
        54   61.185845          22199   359            362            419            0              21059          6.0195698e-13
        55   62.313007          22632   361            365            420            0              21486          6.0606015e-13
        56   63.439684          23093   364            367            423            0              21939          6.1014987e-13
        57   64.590454          23533   367            370            427            0              22369          6.1401002e-13
        58   65.788903          23991   370            372            428            0              22821          6.179288e-13 
        59   66.987906          24442   373            374            429            0              23266          6.2174403e-13
        60   79.218956          24879   374            375            430            0              23700          6.2542553e-13
        61   80.499611          25355   376            379            431            0              24169          6.2924754e-13
        62   81.780662          25780   379            381            435            0              24585          6.3265562e-13
        63   83.094376          26268   382            385            435            0              25066          6.3640195e-13
        64   84.432886          26710   385            385            437            0              25503          6.3983465e-13
        65   85.793669          27155   385            386            438            0              25946          6.4333307e-13
        66   87.190101          27620   387            386            439            0              26408          6.4681333e-13
        67   88.603786          28066   390            387            441            0              26848          6.5015053e-13
        68   90.071646          28532   393            388            442            0              27309          6.5355772e-13
        69   91.553399          28991   395            394            443            0              27759          6.5675845e-13
        70   93.178603          29449   397            395            446            0              28211          6.5988646e-13
        71   94.736999          29927   399            395            447            0              28686          6.6304271e-13
        72   96.320618          30378   402            395            452            0              29129          6.6610388e-13
        73   97.937551          30844   402            396            453            0              29593          6.6909789e-13
        74   99.591694          31291   403            398            453            0              30037          6.7209851e-13
        75   101.27431          31778   405            401            455            0              30517          6.7512511e-13
        76   102.99663          32225   405            403            456            0              30961          6.7793019e-13
        77   104.7399           32704   408            404            458            0              31434          6.8084156e-13
        78   106.51792          33169   408            405            462            0              31894          6.8362773e-13
        79   108.34776          33645   411            406            464            0              32364          6.8642138e-13
        80   110.28501          34104   411            408            466            0              32819          6.8907371e-13
        81   112.16797          34588   412            409            467            0              33300          6.9193503e-13
        82   114.07333          35044   414            411            467            0              33752          6.9458257e-13
        83   116.01156          35518   415            411            468            0              34224          6.9734965e-13
        84   118.00491          35959   415            412            471            0              34661          6.9995703e-13
        85   120.02034          36452   415            413            474            0              35150          7.0272781e-13
        86   122.10225          36905   417            415            478            0              35595          7.0527481e-13
        87   124.23355          37399   418            417            481            0              36083          7.080572e-13 
        88   126.44845          37849   420            420            483            0              36526          7.1072804e-13
        89   128.72118          38342   421            422            484            0              37015          7.1356754e-13
        90   131.17841          38786   423            423            484            0              37456          7.1623035e-13
        91   133.57225          39278   424            425            484            0              37945          7.191783e-13 
        92   136.01778          39719   426            427            488            0              38378          7.2183465e-13
        93   138.46893          40216   427            430            490            0              38869          7.2500707e-13
        94   140.99659          40645   428            435            493            0              39289          7.2783532e-13
        95   143.59098          41116   430            439            496            0              39751          7.3102215e-13
        96   146.21233          41565   431            442            498            0              40194          7.3423726e-13
        97   148.88072          42018   433            445            503            0              40637          7.3737191e-13
        98   151.52542          42491   436            449            507            0              41099          7.4066214e-13
        99   154.2383           42941   437            456            511            0              41537          7.438147e-13 
       100   157.10186          43404   438            459            515            0              41992          7.4745158e-13
       101   159.95389          43845   439            461            521            0              42424          7.5103852e-13
       102   162.84596          44337   441            468            527            0              42901          7.5526824e-13
       103   165.77643          44786   443            470            530            0              43343          7.5959913e-13
       104   168.78208          45266   444            479            540            0              43803          7.6408235e-13
       105   171.7919           45713   449            483            550            0              44231          7.685421e-13 
       106   174.8624           46203   452            486            562            0              44703          7.7331e-13   
       107   177.97111          46682   456            494            571            0              45161          7.7800198e-13
       108   181.10123          47143   457            497            580            0              45609          7.8274614e-13
       109   184.24383          47630   460            503            589            1              46077          7.8765096e-13
       110   187.60539          48113   464            508            597            1              46543          7.9245664e-13
       111   190.85933          48580   466            515            604            1              46994          7.9743204e-13
       112   194.19714          49079   471            520            610            1              47477          8.0253102e-13
       113   197.5856           49585   474            523            616            3              47969          8.0752962e-13
       114   201.07995          50059   476            525            625            4              48429          8.1244352e-13
       115   204.71853          50553   479            528            630            6              48910          8.1750587e-13
       116   208.25766          51016   484            532            629            11             49360          8.2197402e-13
       117   211.91894          51532   486            535            633            11             49867          8.2675803e-13
       118   215.62865          52005   490            539            635            14             50327          8.3074283e-13
       119   219.36251          52495   493            540            633            17             50812          8.3457604e-13
       120   223.30824          52994   497            543            632            19             51303          8.3819718e-13
       121   227.13879          53518   500            545            632            23             51818          8.4166669e-13
       122   231.03438          54056   505            548            631            26             52346          8.4496422e-13
       123   234.99442          54604   509            550            631            29             52885          8.4796542e-13
       124   239.0051           55166   514            550            629            32             53441          8.5090577e-13
       125   243.04573          55719   515            550            625            37             53992          8.5348847e-13
       126   247.0993           56279   516            551            622            42             54548          8.5586377e-13
       127   251.24716          56895   517            552            619            46             55161          8.5843327e-13
       128   255.47564          57479   519            554            618            47             55741          8.6079669e-13
       129   259.76619          58052   519            554            612            53             56314          8.6304121e-13
       130   264.25723          58661   520            554            608            59             56920          8.653457e-13 
       131   268.68388          59263   520            557            605            62             57519          8.6754133e-13
       132   273.21585          59878   521            557            602            65             58133          8.6994857e-13
       133   277.78416          60453   522            560            597            70             58704          8.7214146e-13
       134   282.42937          61068   522            562            595            72             59317          8.7460351e-13
       135   287.14725          61657   522            563            593            74             59905          8.7685342e-13
       136   292.00925          62282   522            565            591            76             60528          8.7930856e-13
       137   296.92189          62879   523            566            589            78             61123          8.8161644e-13
       138   301.91044          63480   523            567            587            80             61723          8.8392897e-13
       139   306.97615          64067   526            567            585            83             62306          8.8613284e-13
       140   312.31348          64687   527            567            582            87             62924          8.8849776e-13
       141   317.55234          65279   527            572            580            90             63510          8.9081722e-13
       142   322.83942          65893   528            572            578            92             64123          8.9313471e-13
       143   328.22746          66500   529            574            575            95             64727          8.954508e-13 
       144   333.71864          67103   532            575            576            95             65325          8.9770385e-13
       145   339.27384          67723   533            575            577            95             65943          9.0014993e-13
       146   344.94251          68337   533            576            574            99             66555          9.0243299e-13
       147   350.68548          68941   533            580            573            100            67155          9.0471159e-13
       148   356.50451          69558   534            580            569            104            67771          9.0705604e-13
       149   362.39033          70146   536            580            567            106            68357          9.0933192e-13
       150   368.53072          70786   539            580            565            108            68994          9.1171261e-13
       151   374.58004          71380   540            582            564            109            69585          9.1389583e-13
       152   380.70394          72005   540            582            560            114            70209          9.1619742e-13
       153   386.90097          72597   541            583            560            115            70798          9.1838335e-13
       154   393.20289          73244   542            586            559            117            71440          9.2072611e-13
       155   399.57872          73830   542            586            554            122            72026          9.2293867e-13
       156   406.03876          74453   543            586            553            123            72648          9.2528678e-13
       157   412.60618          75062   545            586            553            124            73254          9.2759742e-13
       158   419.22568          75669   545            586            552            125            73861          9.2976309e-13
       159   425.94215          76292   546            587            553            126            74480          9.3209779e-13
       160   432.94348          76904   546            588            552            128            75090          9.3420431e-13
       161   439.86237          77524   547            589            547            134            75707          9.3652108e-13
       162   446.82799          78137   547            589            548            134            76319          9.3871332e-13
       163   453.84781          78748   547            591            545            138            76927          9.4095468e-13
       164   460.9999           79376   547            591            541            142            77555          9.4320495e-13
       165   468.21427          79989   547            592            537            147            78166          9.4540131e-13
       166   475.51952          80607   547            592            538            147            78783          9.4766147e-13
       167   482.90656          81206   548            593            536            149            79380          9.4972226e-13
       168   490.38873          81838   549            593            535            150            80011          9.5189478e-13
       169   497.9546           82434   550            594            533            152            80605          9.5401838e-13
       170   505.8009           83074   550            596            533            152            81243          9.5637185e-13
       171   513.56111          83669   551            597            532            153            81836          9.5856643e-13
       172   521.40128          84317   551            597            531            156            82482          9.6093849e-13
       173   529.31514          84900   553            598            531            156            83062          9.6308754e-13
       174   537.30107          85556   553            599            526            161            83717          9.6551423e-13
       175   545.37326          86167   555            601            524            164            84323          9.6777655e-13
       176   553.52405          86798   558            601            523            165            84951          9.7016464e-13
       177   561.78026          87405   559            602            523            166            85555          9.7255129e-13
       178   570.10319          88050   559            606            520            169            86196          9.7503785e-13
       179   578.51145          88665   560            606            516            173            86810          9.7743011e-13
       180   587.23748          89294   561            606            514            175            87438          9.7992297e-13
       181   595.83627          89912   561            606            511            178            88056          9.8226672e-13
       182   604.6195           90530   561            607            511            180            88671          9.8461526e-13
       183   613.37946          91170   561            607            506            185            89311          9.8702574e-13
       184   622.23065          91780   562            608            505            187            89918          9.8927942e-13
       185   631.21079          92421   562            611            501            191            90556          9.9163801e-13
       186   640.2687           93049   564            613            499            193            91180          9.9402202e-13
       187   649.38815          93662   565            614            495            197            91791          9.9632455e-13
       188   658.62567          94315   565            615            492            200            92443          9.9881936e-13
       189   667.97807          94921   566            615            488            205            93047          1.0011188e-12
       190   677.71927          95563   566            615            487            206            93689          1.0035708e-12
       191   687.31449          96182   567            615            483            210            94307          1.0059241e-12
       192   696.99054          96826   568            615            478            216            94949          1.008334e-12 
       193   706.7667           97450   568            615            475            220            95572          1.0107009e-12
       194   716.5803           98096   569            615            472            223            96217          1.0130039e-12
       195   726.4958           98711   569            615            469            226            96832          1.0151858e-12
       196   736.4983           99350   569            615            466            229            97471          1.0174411e-12
       197   746.57607          99994   570            615            465            230            98114          1.0197939e-12
       198   756.74778         100616   570            615            463            232            98736          1.0220939e-12
       199   767.00513         101251   570            615            460            235            99371          1.0244431e-12
       200   777.6001          101883   570            615            459            236            100003         1.0267333e-12
       201   788.06182         102526   570            616            457            238            100645         1.0289987e-12
       202   798.6776          103152   570            618            455            240            101269         1.0312186e-12
       203   809.33049         103794   570            620            450            245            101909         1.033546e-12 
       204   820.07285         104427   572            621            447            248            102539         1.0358919e-12
       205   830.94283         105049   572            621            443            252            103161         1.0382711e-12
       206   841.89515         105684   573            621            442            253            103795         1.0406417e-12
       207   852.96355         106327   573            622            442            253            104437         1.0430906e-12
       208   864.09414         106950   573            622            439            256            105060         1.0453915e-12
       209   875.32433         107600   573            622            437            258            105710         1.0478002e-12
       210   886.87697         108231   574            623            430            265            106339         1.0501605e-12
       211   898.29317         108875   574            624            429            266            106982         1.0525433e-12
       212   909.81148         109496   575            624            429            266            107602         1.0548989e-12
       213   921.48185         110156   576            624            423            272            108261         1.0573564e-12
       214   933.2165          110791   576            625            423            272            108895         1.0597776e-12
       215   945.06568         111435   577            625            421            274            109538         1.0622011e-12
       216   957.01645         112074   577            625            416            279            110177         1.0646686e-12
       217   969.18028         112704   577            625            415            281            110806         1.0670163e-12
       218   981.4123          113357   577            629            412            284            111455         1.0696193e-12
       219   993.81303         113999   577            631            412            284            112095         1.0720253e-12
       220   1006.4941         114651   578            633            406            291            112743         1.0746911e-12
       221   1018.969          115283   579            634            405            292            113373         1.0771106e-12
       222   1031.5799         115917   579            635            402            295            114006         1.0795529e-12
       223   1044.2717         116575   579            639            397            300            114660         1.0819779e-12
       224   1057.0635         117203   579            640            394            306            115284         1.0844731e-12
       225   1069.9553         117849   579            641            393            307            115929         1.0869556e-12
       226   1082.99           118485   579            642            390            310            116564         1.0894558e-12
       227   1096.1218         119138   579            643            388            314            117214         1.0923226e-12
       228   1109.3887         119782   580            647            386            317            117852         1.0950937e-12
       229   1122.7019         120414   580            648            386            318            118482         1.0981191e-12
       230   1136.509          121070   580            650            386            320            119134         1.1013577e-12
       231   1150.1392         121682   581            650            388            322            119741         1.1045833e-12
       232   1163.891          122341   583            651            387            326            120394         1.1082698e-12
       233   1177.749          122948   584            652            388            329            120995         1.1119756e-12
       234   1191.7574         123580   587            653            388            335            121617         1.1160137e-12
       235   1205.8128         124184   592            655            392            336            122209         1.1202619e-12
       236   1220.0957         124782   593            656            395            337            122801         1.1246837e-12
       237   1234.4626         125372   597            657            397            342            123379         1.1295718e-12
       238   1248.9211         125939   598            661            400            348            123932         1.1345151e-12
       239   1263.4621         126497   602            663            404            351            124477         1.1395387e-12
       240   1278.3804         127051   609            667            409            355            125011         1.1445236e-12
       241   1293.02           127625   614            670            411            362            125568         1.1498145e-12
       242   1307.7841         128177   617            671            415            365            126109         1.155006e-12 
       243   1322.5337         128763   625            676            413            369            126680         1.1598201e-12
       244   1337.4299         129339   628            679            413            377            127242         1.164511e-12 
       245   1352.4197         129915   630            681            414            382            127808         1.1692324e-12
       246   1367.4088         130545   633            684            412            390            128426         1.1735522e-12
       247   1382.5119         131161   635            686            409            393            129038         1.1778392e-12
       248   1397.6023         131799   639            690            406            398            129666         1.1817886e-12
       249   1412.7602         132469   641            696            405            403            130324         1.1854771e-12
       250   1428.3127         133143   640            698            402            408            130995         1.1890803e-12
       251   1443.7173         133822   640            697            400            416            131669         1.1925915e-12
       252   1459.236          134538   638            697            396            423            132384         1.1961594e-12
       253   1474.8451         135249   637            699            394            428            133091         1.1995346e-12
       254   1490.6034         135946   637            699            389            433            133788         1.2027412e-12
       255   1506.4948         136703   637            699            386            437            134544         1.206111e-12 
       256   1522.4651         137446   638            700            382            442            135284         1.2093614e-12
       257   1538.5503         138183   638            700            381            443            136021         1.2126041e-12
       258   1554.7316         138930   639            700            375            451            136765         1.2159241e-12
       259   1571.0891         139673   638            700            372            455            137508         1.2191768e-12
       260   1587.9103         140391   638            700            371            456            138226         1.2223974e-12
       261   1604.541          141153   637            702            370            458            138986         1.2256757e-12
       262   1621.1914         141871   637            702            368            460            139704         1.2288172e-12
       263   1638.003          142646   637            702            368            460            140479         1.2321753e-12
       264   1655.153          143373   638            702            367            461            141205         1.2353085e-12
       265   1672.4154         144138   638            703            366            463            141968         1.2386806e-12
       266   1689.8319         144852   637            703            365            465            142682         1.2418002e-12
       267   1707.3298         145589   638            703            363            468            143417         1.2450575e-12
       268   1724.8833         146331   639            704            362            469            144157         1.2482609e-12
       269   1742.6112         147084   639            704            356            475            144910         1.2515193e-12
       270   1760.8211         147806   639            704            355            476            145632         1.2546246e-12
       271   1778.8003         148569   639            704            352            479            146395         1.2578334e-12
       272   1796.9091         149289   639            704            351            480            147115         1.2609338e-12
       273   1815.1074         150037   639            704            349            482            147863         1.2640946e-12
       274   1833.4966         150760   639            704            347            486            148584         1.267091e-12 
       275   1851.9926         151501   639            705            344            489            149324         1.2702615e-12
       276   1870.6175         152233   639            705            341            492            150056         1.2733972e-12
       277   1889.4483         152982   638            704            338            497            150805         1.2766074e-12
       278   1908.3704         153680   639            705            338            497            151501         1.2796085e-12
       279   1927.3981         154449   639            705            337            498            152270         1.2828964e-12
       280   1946.9953         155140   641            705            331            506            152957         1.2857849e-12
       281   1966.3564         155913   642            707            329            508            153727         1.2889991e-12
       282   1985.85           156630   642            707            328            510            154443         1.2919372e-12
       283   2005.4771         157373   645            707            328            510            155183         1.2949638e-12
       284   2025.2539         158120   644            706            324            516            155930         1.2979651e-12
       285   2045.0777         158845   645            707            320            520            156653         1.3010361e-12
       286   2065.0447         159583   644            707            318            523            157391         1.3040962e-12
       287   2085.1273         160325   644            707            316            526            158132         1.3072196e-12
       288   2105.3304         161060   644            708            314            528            158866         1.3102786e-12
       289   2125.7346         161780   645            709            313            531            159582         1.313306e-12 
       290   2146.6199         162532   645            709            311            533            160334         1.3163657e-12
       291   2167.1637         163251   645            709            310            534            161053         1.3194015e-12
       292   2187.8545         163975   644            709            309            536            161777         1.3224285e-12
       293   2208.6232         164732   644            709            308            538            162533         1.3255699e-12
       294   2229.5655         165438   644            709            304            542            163239         1.3285035e-12
       295   2250.6456         166189   644            709            301            545            163990         1.3316614e-12
       296   2271.8516         166897   644            709            300            546            164698         1.3345417e-12
       297   2293.265          167650   644            709            298            549            165450         1.3376519e-12
       298   2314.7778         168358   644            709            297            550            166158         1.3405849e-12
       299   2336.409          169110   644            709            294            553            166910         1.3436471e-12
       300   2358.6415         169828   644            709            294            553            167628         1.3466006e-12
Loop time of 2358.64 on 16 procs for 300 steps with 169828 atoms

97.0% CPU use with 16 MPI tasks x 1 OpenMP threads

MPI task timing breakdown:
Section |  min time  |  avg time  |  max time  |%varavg| %total
---------------------------------------------------------------
Pair    | 677.84     | 757.06     | 813.21     | 148.5 | 32.10
Neigh   | 705.21     | 786.81     | 863.56     | 158.1 | 33.36
Comm    | 200.5      | 205.11     | 210.63     |  22.1 |  8.70
Output  | 56.395     | 56.395     | 56.396     |   0.0 |  2.39
Modify  | 418.29     | 546.29     | 708.15     | 353.4 | 23.16
Other   |            | 6.981      |            |       |  0.30

Nlocal:        10614.2 ave       11125 max       10116 min
Histogram: 1 1 4 0 2 1 3 2 0 2
Nghost:        8188.81 ave        8580 max        7963 min
Histogram: 2 3 3 1 3 0 3 0 0 1
Neighs:         130641 ave      139915 max      120569 min
Histogram: 1 1 4 0 2 0 3 2 1 2

Total # of neighbors = 2090261
Ave neighs/atom = 12.308106
Neighbor list builds = 26431
Dangerous builds = 26131

Total wall time: 0:39:19
