LAMMPS (23 Jun 2022 - Update 4)
  using 1 OpenMP thread(s) per MPI task
package omp 0
using multi-threaded neighbor list subroutines
#-----------------------------------------------------------------------------#
#                NUFEB Simulation: Heterotrophic Biofilm Growth               #
#-----------------------------------------------------------------------------#


#-----------------------------System Settings---------------------------------#

units si                                    # using si units (m, s, kg)
atom_style      coccus                      # using nufeb coccus atom style
atom_modify     map array sort 10 0         # map array - find atoms using indices
		                            # sort every 10

boundary        pp pp ff                    # periodic boundaries in x and y
                                            # fixed boundary in z

newton          off                         # forces between local and ghost
                                            # atoms are computed in each
					     # processor without communication

processors      * * 1                       # processor grid

comm_modify     vel yes                     # communicate velocities for ghost atoms

read_data       atom_ch.in	             # read atom.in file which defines domain size
Reading data file ...
  orthogonal box = (0 0 0) to (6e-05 6e-05 6e-05)
  4 by 4 by 1 MPI processor grid
  reading atoms ...
  150 atoms
  read_data CPU = 0.021 seconds
                                            # and initial atoms


#--------------------Microbes and Functional Groups-------------------------#

group           CROSS1   type 1               # assign type 1,2 atoms to CROSS group
50 atoms in group CROSS1
group           CROSS2   type 2
50 atoms in group CROSS2
group		CHEATER  type 3
50 atoms in group CHEATER
group           dead     type 4
0 atoms in group dead
group		EPS	 type 5
0 atoms in group EPS

neighbor        5e-7 bin                   # setting neighbour skin distance and style

neigh_modify    check yes                  # rebuild neighbour list if any atom
                                           # had moved more than half the skin distance


#--------------------------Mesh Grid and Substrates--------------------------#

# defining grid sytle, substrate names, and grid size
grid_style      nufeb/chemostat 3 sub metab1 metab2 5e-6

# set diffusion boundary conditions and initial concentrations (liquid:kg/m3)
grid_modify     set sub      pp pp nd  1.8e-4
No /omp style for force computation currently active
grid_modify     set metab1   pp pp nd  1e-4
No /omp style for force computation currently active
grid_modify     set metab2   pp pp nd  1e-4
No /omp style for force computation currently active


#--------------------------Biological Processes-------------------------------#

# heterotrophs growth
fix growth_cross1 CROSS1 nufeb/growth/cross1 sub 3.5e-5 metab2 4e-3 metab1 growth 0.009 yield 0.6 decay 2.6e-6 metab1_exp 20 epsyield 0.12 epsdens 30

fix growth_cross2 CROSS2 nufeb/growth/cross2 sub 3.5e-5 metab1 4e-3 metab2 growth 0.009 yield 0.6 decay 2.6e-6 metab2_exp 20 epsyield 0.12 epsdens 30

fix growth_cheater CHEATER nufeb/growth/cheater sub 3.5e-5 metab1 1e-3 metab2 1e-3 growth 0.009 yield 0.6 decay 2.6e-6 epsyield 0.12 epsdens 30

# heterotrophs division, division diameter: 1.36e-6
fix div1 CROSS1 nufeb/division/coccus 1.36e-6 139
fix div2 CROSS2 nufeb/division/coccus 1.36e-6 250
fix div3 CHEATER nufeb/division/coccus 1.36e-6 433

fix death1 CROSS1 nufeb/death/diameter dead 5.43e-7
fix death2 CROSS2 nufeb/death/diameter dead 5.43e-7
fix death3 CHEATER nufeb/death/diameter dead 5.43e-7

# EPS secretion from heterotrophs
fix eps1 CROSS1 nufeb/eps_secretion 5 EPS 1.1 30 688
fix eps2 CROSS2 nufeb/eps_secretion 5 EPS 1.1 30 1015
fix eps3 CROSS2 nufeb/eps_secretion 5 EPS 1.1 30 1414
#---------------------------Physical Processes--------------------------------#

pair_style  gran/hooke/history 1e-4 NULL 1e-5 NULL 0.0 0    # pairwise interaction
pair_coeff  * *                                             # between atoms

# pairwise interaction between z-wall and atoms
fix wall all wall/gran hooke/history 1e-3 NULL 1e-4 NULL 0 0 zplane 0.0 1e-04

fix vis all viscous 1e-5                                    # viscous damping force

fix grav all gravity 9.81 vector 0.0 0.0 -1.0

fix nve all nve/limit 1e-7                                  # NVE integration with
                                                            # maximum distance limit


#---------------------------Post-Physical Processes---------------------------#

fix coeff_sub all nufeb/diffusion_coeff sub ratio 0.8       # defining diffusion coeff in the biofilm
fix coeff_metab1 all nufeb/diffusion_coeff metab1 ratio 0.8    # region is 80% of the value in liquid
fix coeff_metab2 all nufeb/diffusion_coeff metab2 ratio 0.8

#---------------------------Chemical Processes---------------------------------#

fix diff_sub all nufeb/diffusion_reaction sub 1e-9        # diffusion reaction for updating
fix diff_metab1 all nufeb/diffusion_reaction metab1 4e-9     # distribusion of substrate concentration
fix diff_metab2 all nufeb/diffusion_reaction metab2 4e-9

#--------------------------Computations and Outputs----------------------------#

variable mass equal "mass(all)"                             # total mass
variable ncross1 equal "count(CROSS1)"                      # total # of CROSS1
variable ncross2 equal "count(CROSS2)"                      # total # of CROSS2
variable ncheater equal "count(CHEATER)"
variable ndead equal "count(dead)"
variable neps equal "count(EPS)"

shell mkdir vtk_CHEPS_ch                                            # dump vtk files to /vtk folder
WARNING: Shell command 'mkdir vtk_CHEPS_ch' failed with error 'File exists' (../input.cpp:1207)
dump du1 all vtk 10 vtk_CHEPS_ch/dump*.vtu id type diameter         # require build NUFEB with vtk option
dump du2 all grid/vtk 10 vtk_CHEPS_ch/dump_%_*.vti con rea den gro

#dump du3 all movie 10 movie.avi type diameter view 80 60    # dump video
#dump_modify du3 acolor 1 blue acolor 2 lightgrey framerate 10


                                                            # dump hdf5 files to /hdf5 folder
#shell mkdir hdf5                                           # require build NUFEB with hdf5 option
#dump du3 all nufeb/hdf5 10 dump.h5 id type x y z vx vy vz fx fy fz radius conc reac

thermo_style custom step cpu atoms v_ncross1 v_ncross2 v_ncheater v_ndead v_neps v_mass     # screen and log outputs
thermo 1
thermo_modify   lost ignore

#-----------------------------------Run----------------------------------------#

# issue run command, define timesteps for physical (pairdt) and chemical (diffdt) processes
run_style nufeb diffdt 1e-4 difftol 1e-6 pairdt 1e-2 pairtol 1 pairmax 1000 diffmax 5000

timestep 12000                                               # define biological timesteps (1000s)

run 300                                                    # growing biofilm for 900x1000s
Generated 0 of 6 mixed pair_coeff terms from geometric mixing rule
Last active /omp style is pair_style gran/hooke/history/omp
Neighbor list info ...
  update every 1 steps, delay 10 steps, check yes
  max neighbors/atom: 2000, page size: 100000
  master list distance cutoff = 2.49e-06
  ghost atom cutoff = 2.49e-06
  binsize = 1.245e-06, bins = 49 49 49
  1 neighbor lists, perpetual/occasional/extra = 1 0 0
  (1) pair gran/hooke/history/omp, perpetual
      attributes: half, newton off, size, history, omp
      pair build: half/size/bin/newtoff/omp
      stencil: full/bin/3d
      bin: standard
Per MPI rank memory allocation (min/avg/max) = 11.02 | 11.02 | 11.02 Mbytes
   Step          CPU          Atoms      v_ncross1      v_ncross2      v_ncheater      v_ndead         v_neps         v_mass    
         0   0                    150   50             50             50             0              0              1.3295396e-13
         1   0.3871788            494   90             85             83             0              236            1.6438142e-13
         2   0.76926421           906   120            125            123            0              538            1.8171617e-13
         3   1.0679846           1237   129            143            137            0              828            1.9607598e-13
         4   1.348534            1581   139            152            146            0              1144           2.0940459e-13
         5   1.5195773           1917   142            160            155            0              1460           2.2210123e-13
         6   1.6606504           2246   147            167            163            0              1769           2.3449342e-13
         7   1.8224494           2603   158            177            173            0              2095           2.4656123e-13
         8   1.9394812           2954   163            186            178            0              2427           2.5832349e-13
         9   2.0778124           3324   165            196            187            0              2776           2.6987564e-13
        10   2.22161             3678   170            203            189            0              3116           2.810778e-13 
        11   2.3184184           4070   176            218            195            0              3481           2.9209586e-13
        12   2.4601645           4472   190            225            204            0              3853           3.0284477e-13
        13   2.5504467           4877   196            232            213            0              4236           3.1340612e-13
        14   2.6437389           5282   204            240            218            0              4620           3.2370957e-13
        15   2.7671875           5700   209            243            226            0              5022           3.3391493e-13
        16   2.8574576           6093   210            246            230            0              5407           3.4377927e-13
        17   2.9581934           6497   216            251            235            0              5795           3.5344018e-13
        18   3.0647535           6916   226            257            243            0              6190           3.6283048e-13
        19   3.1583703           7321   229            261            249            0              6582           3.7211896e-13
        20   3.3052519           7731   233            262            257            0              6979           3.812758e-13 
        21   3.4093662           8125   236            263            261            0              7365           3.9016444e-13
        22   3.5143371           8524   240            268            267            0              7749           3.9887815e-13
        23   3.5976315           8943   244            270            274            0              8155           4.0748522e-13
        24   3.7087522           9340   248            277            280            0              8535           4.1580964e-13
        25   3.8107552           9734   253            280            283            0              8918           4.2389872e-13
        26   3.8907359          10139   258            284            289            0              9308           4.3193186e-13
        27   3.9764417          10558   263            292            297            0              9706           4.3983888e-13
        28   4.0891893          10970   270            297            303            0              10100          4.475078e-13 
        29   4.2051735          11406   279            301            307            0              10519          4.5517603e-13
        30   4.4598458          11827   283            305            314            0              10925          4.6263404e-13
        31   4.5752214          12246   288            309            319            0              11330          4.7000437e-13
        32   4.6989016          12663   291            310            323            0              11739          4.7727011e-13
        33   4.8615324          13092   294            314            331            0              12153          4.845241e-13 
        34   5.009556           13494   295            318            336            0              12545          4.9145782e-13
        35   5.2198023          13919   299            319            342            0              12959          4.9845728e-13
        36   5.4559227          14335   304            324            347            0              13360          5.0509284e-13
        37   5.8004457          14775   310            330            348            0              13787          5.117915e-13 
        38   6.348341           15194   311            333            355            0              14195          5.1822928e-13
        39   6.9926145          15618   313            333            367            0              14605          5.2446071e-13
        40   7.4982175          16057   316            336            371            0              15034          5.3041632e-13
        41   8.3623276          16477   319            339            372            0              15447          5.3610369e-13
        42   9.2512166          16905   320            342            376            0              15867          5.4176657e-13
        43   10.141791          17339   323            343            379            0              16294          5.472716e-13 
        44   11.043677          17786   327            345            384            0              16730          5.5268428e-13
        45   11.980953          18209   329            347            390            0              17143          5.5787414e-13
        46   12.996644          18634   332            349            392            0              17561          5.6295749e-13
        47   13.97493           19061   333            351            393            0              17984          5.678813e-13 
        48   14.978884          19495   335            352            399            0              18409          5.7273681e-13
        49   15.985356          19923   337            353            399            0              18834          5.7742317e-13
        50   17.058451          20345   341            356            401            0              19247          5.8184855e-13
        51   18.154108          20795   345            358            403            0              19689          5.8631678e-13
        52   19.210612          21234   348            361            404            0              20121          5.9084592e-13
        53   20.277475          21663   349            362            408            0              20544          5.952109e-13 
        54   21.398012          22101   350            364            410            0              20977          5.9959508e-13
        55   22.538909          22535   353            365            411            0              21406          6.0371475e-13
        56   23.691869          22978   356            365            414            0              21843          6.0808769e-13
        57   24.893221          23420   360            368            418            0              22274          6.1232332e-13
        58   26.093394          23875   362            370            424            0              22719          6.1662987e-13
        59   27.306803          24311   364            371            432            0              23144          6.2077827e-13
        60   30.022825          24758   366            373            433            0              23586          6.2493464e-13
        61   31.309022          25203   366            379            439            0              24019          6.2893344e-13
        62   32.670078          25639   369            383            441            0              24446          6.3286683e-13
        63   33.982621          26096   374            383            444            0              24895          6.3675906e-13
        64   35.3251            26554   377            388            445            0              25344          6.4064697e-13
        65   36.693971          26998   380            390            448            0              25780          6.4425611e-13
        66   38.097931          27473   382            390            451            0              26250          6.479999e-13 
        67   39.534055          27910   383            391            454            0              26682          6.5137696e-13
        68   41.01667           28380   385            391            455            0              27149          6.5498391e-13
        69   42.50693           28812   385            394            457            0              27576          6.5820969e-13
        70   44.122065          29290   387            397            459            0              28047          6.6164774e-13
        71   45.704393          29740   387            400            464            0              28489          6.649667e-13 
        72   47.296486          30194   389            401            465            0              28939          6.6824767e-13
        73   48.985736          30652   392            403            468            0              29389          6.7160012e-13
        74   50.64225           31107   395            403            469            0              29840          6.7495423e-13
        75   52.349949          31565   395            405            471            0              30294          6.7821234e-13
        76   54.071937          32031   395            408            471            0              30757          6.8144976e-13
        77   55.842869          32478   397            409            472            0              31200          6.8448766e-13
        78   57.645126          32947   397            411            474            0              31665          6.8779225e-13
        79   59.46807           33397   398            414            477            0              32108          6.9090534e-13
        80   61.419467          33871   399            416            481            0              32575          6.9403324e-13
        81   63.372452          34329   399            418            482            0              33030          6.970474e-13 
        82   65.322681          34800   400            420            484            0              33496          7.0008902e-13
        83   67.297522          35255   400            421            486            0              33948          7.0297267e-13
        84   69.327418          35738   401            423            488            0              34426          7.0588841e-13
        85   71.41856           36183   402            423            490            0              34868          7.0875831e-13
        86   73.549358          36653   402            424            492            0              35335          7.1184045e-13
        87   75.722429          37123   403            426            496            0              35798          7.1504992e-13
        88   77.995825          37594   403            428            499            0              36264          7.1826751e-13
        89   80.325406          38045   404            428            502            0              36711          7.2152151e-13
        90   82.792606          38514   404            429            508            0              37173          7.2532758e-13
        91   85.24549           38966   404            430            510            0              37622          7.2895768e-13
        92   87.739569          39432   406            432            520            0              38074          7.329675e-13 
        93   90.219192          39882   408            434            525            0              38515          7.373121e-13 
        94   92.819184          40364   409            436            533            0              38986          7.4193834e-13
        95   95.484422          40801   409            437            543            0              39412          7.4669606e-13
        96   98.168218          41280   409            441            559            0              39871          7.5188689e-13
        97   100.91332          41714   409            441            565            0              40299          7.5715216e-13
        98   103.70726          42181   409            444            572            0              40756          7.6301851e-13
        99   106.57652          42623   409            447            585            0              41182          7.6886583e-13
       100   109.58445          43105   409            452            600            0              41644          7.7485789e-13
       101   112.54136          43526   409            453            615            0              42049          7.8066194e-13
       102   115.50426          43995   409            456            631            0              42499          7.8709851e-13
       103   118.53425          44430   409            462            644            0              42915          7.9324337e-13
       104   121.64565          44908   409            470            657            0              43372          7.9957331e-13
       105   124.72219          45330   409            474            670            1              43776          8.0588089e-13
       106   127.90324          45777   410            476            682            1              44208          8.1246934e-13
       107   131.062            46237   410            486            698            2              44641          8.1906231e-13
       108   134.34471          46698   410            489            708            4              45087          8.2581648e-13
       109   137.70792          47142   410            493            725            5              45509          8.3248488e-13
       110   141.18599          47606   410            500            737            6              45953          8.3908052e-13
       111   144.61613          48051   410            504            750            8              46379          8.4574087e-13
       112   148.16085          48486   411            506            759            8              46802          8.5194111e-13
       113   151.81727          48940   412            511            767            9              47241          8.5782892e-13
       114   155.43078          49370   413            515            776            9              47657          8.6344584e-13
       115   159.18017          49803   416            517            786            10             48074          8.6883586e-13
       116   163.02999          50277   422            527            800            10             48518          8.739211e-13 
       117   166.94485          50699   425            528            805            11             48930          8.7846177e-13
       118   170.8913           51165   430            531            809            14             49381          8.8290228e-13
       119   174.755            51616   435            535            815            14             49817          8.8666586e-13
       120   179.02369          52085   439            540            816            18             50272          8.9054493e-13
       121   183.1925           52569   449            541            815            21             50743          8.9412837e-13
       122   187.42344          53035   452            545            811            27             51200          8.9752185e-13
       123   191.61764          53544   457            547            808            33             51699          9.0045445e-13
       124   195.8556           54049   461            547            808            36             52197          9.0313977e-13
       125   200.20573          54595   467            548            805            39             52736          9.0575206e-13
       126   204.60543          55137   470            549            805            42             53271          9.0810759e-13
       127   209.06434          55686   470            551            799            48             53818          9.1044075e-13
       128   213.5778           56232   476            554            798            50             54354          9.1255049e-13
       129   218.23214          56799   478            556            794            54             54917          9.147347e-13 
       130   223.11802          57368   480            556            794            55             55483          9.1678568e-13
       131   227.93028          57952   480            557            790            60             56065          9.1874431e-13
       132   232.82405          58533   482            557            787            63             56644          9.2057215e-13
       133   237.8196           59138   482            557            785            65             57249          9.224525e-13 
       134   242.96515          59723   482            558            782            68             57833          9.2424316e-13
       135   248.2              60319   482            558            778            73             58428          9.2614766e-13
       136   253.51279          60900   484            559            773            78             59006          9.2797261e-13
       137   258.92964          61493   485            559            771            81             59597          9.2990293e-13
       138   264.45383          62062   487            559            765            88             60163          9.317126e-13 
       139   270.097            62672   488            560            761            92             60771          9.3374559e-13
       140   275.98555          63244   489            562            759            94             61340          9.3561442e-13
       141   281.79655          63835   491            563            758            95             61928          9.3752697e-13
       142   287.77071          64425   493            564            757            96             62515          9.3945769e-13
       143   293.8108           65011   495            565            756            97             63098          9.414262e-13 
       144   299.94698          65601   497            565            757            97             63685          9.4336918e-13
       145   306.20296          66185   498            566            754            100            64267          9.4529136e-13
       146   312.54175          66791   499            566            749            105            64872          9.47341e-13  
       147   318.99206          67361   500            566            749            105            65441          9.4922632e-13
       148   325.5567           67964   500            569            747            107            66041          9.5121597e-13
       149   332.23943          68546   502            569            746            108            66621          9.5312351e-13
       150   339.18675          69149   503            571            745            110            67220          9.5513056e-13
       151   346.0525           69735   503            572            742            113            67805          9.5709849e-13
       152   353.05941          70334   504            572            743            113            68402          9.5908341e-13
       153   360.19203          70913   504            572            741            115            68981          9.6103558e-13
       154   367.40402          71492   504            572            741            116            69559          9.6299265e-13
       155   374.73277          72107   505            573            739            118            70172          9.6513898e-13
       156   382.11127          72646   505            573            736            121            70711          9.6692448e-13
       157   389.57403          73267   506            573            735            122            71331          9.691266e-13 
       158   397.16669          73837   506            575            734            123            71899          9.710495e-13 
       159   404.83983          74445   506            577            733            125            72504          9.7320449e-13
       160   412.80366          75018   506            577            730            128            73077          9.7516324e-13
       161   420.70713          75622   507            579            727            133            73676          9.7723356e-13
       162   428.71135          76214   508            580            726            134            74266          9.7926388e-13
       163   436.79586          76792   508            580            724            136            74844          9.8120341e-13
       164   445.00605          77383   510            580            719            141            75433          9.8325844e-13
       165   453.3331           77975   513            580            714            146            76022          9.8530555e-13
       166   461.74218          78583   513            582            713            147            76628          9.8728686e-13
       167   470.23151          79137   514            582            711            149            77181          9.8910963e-13
       168   478.87737          79741   515            583            709            151            77783          9.9112396e-13
       169   487.60264          80343   515            583            707            153            78385          9.9316968e-13
       170   496.64365          80923   516            584            703            157            78963          9.9516601e-13
       171   505.57185          81512   517            586            699            161            79549          9.9722212e-13
       172   514.6681           82117   518            587            698            162            80152          9.9930687e-13
       173   523.80202          82708   518            587            699            162            80742          1.0013922e-12
       174   533.05351          83316   520            587            697            166            81346          1.0034659e-12
       175   542.36259          83917   522            587            692            171            81945          1.0055958e-12
       176   551.85287          84512   523            587            692            171            82539          1.0076481e-12
       177   561.4243           85115   523            587            690            173            83142          1.0098175e-12
       178   571.10684          85705   523            587            686            177            83732          1.0119695e-12
       179   580.89134          86317   524            587            686            177            84343          1.014179e-12 
       180   590.9579           86908   527            587            682            181            84931          1.0163552e-12
       181   600.94201          87500   527            587            676            187            85523          1.0184676e-12
       182   611.01461          88098   528            587            673            190            86120          1.0206197e-12
       183   621.18668          88706   529            589            669            194            86725          1.0228113e-12
       184   631.46604          89304   529            590            669            195            87321          1.0249321e-12
       185   641.85298          89897   529            590            665            199            87914          1.0271115e-12
       186   652.37132          90504   529            590            661            203            88521          1.0293713e-12
       187   662.99703          91113   531            590            659            205            89128          1.0316215e-12
       188   673.76085          91703   531            591            657            207            89717          1.0338276e-12
       189   684.60129          92330   531            591            655            209            90344          1.0361518e-12
       190   695.75882          92901   531            592            652            212            90914          1.0382522e-12
       191   706.77379          93519   531            592            650            215            91531          1.0405814e-12
       192   717.95956          94112   532            592            649            217            92122          1.0428362e-12
       193   729.22217          94738   533            593            650            218            92744          1.0451337e-12
       194   740.60019          95301   534            594            648            221            93304          1.0472306e-12
       195   752.11101          95961   534            594            646            223            93964          1.0496699e-12
       196   763.71208          96508   535            595            641            228            94509          1.0517177e-12
       197   775.40883          97173   535            595            639            230            95174          1.0541587e-12
       198   787.24126          97736   535            596            638            231            95736          1.0562693e-12
       199   799.27127          98365   535            597            637            232            96364          1.058573e-12 
       200   811.60199          98957   535            597            637            233            96955          1.060797e-12 
       201   823.84319          99571   535            599            637            234            97566          1.0630331e-12
       202   836.24994         100163   536            599            634            237            98157          1.0652616e-12
       203   848.7334          100781   536            599            629            242            98775          1.0674874e-12
       204   861.44754         101380   536            600            626            245            99373          1.0697733e-12
       205   874.34152         101994   536            600            625            246            99987          1.0720171e-12
       206   887.35697         102592   536            600            624            247            100585         1.0742466e-12
       207   900.47121         103198   536            600            622            249            101191         1.0764951e-12
       208   913.70987         103796   537            600            619            252            101788         1.0786983e-12
       209   927.10249         104414   539            600            618            253            102404         1.0810215e-12
       210   940.84031         105025   539            601            614            257            103014         1.0832978e-12
       211   954.45266         105642   539            601            614            257            103631         1.085616e-12 
       212   968.18204         106247   539            601            613            258            104236         1.0878527e-12
       213   981.98519         106858   540            602            609            262            104845         1.0902117e-12
       214   995.87103         107465   540            603            608            264            105450         1.0925961e-12
       215   1009.8906         108076   540            604            604            268            106060         1.0949163e-12
       216   1024.0687         108688   541            604            601            271            106671         1.0973671e-12
       217   1038.346          109284   544            604            602            271            107263         1.0996867e-12
       218   1052.7568         109911   544            605            601            272            107889         1.102358e-12 
       219   1067.2637         110510   545            605            599            274            108487         1.1049024e-12
       220   1082.1327         111131   547            605            597            278            109104         1.1074557e-12
       221   1096.9037         111731   547            606            596            280            109702         1.1100426e-12
       222   1111.7873         112353   548            606            595            281            110323         1.112738e-12 
       223   1126.772          112970   548            606            595            283            110938         1.1153936e-12
       224   1141.8961         113586   548            606            592            287            111553         1.1181276e-12
       225   1157.1224         114207   549            607            590            291            112170         1.120826e-12 
       226   1172.5501         114831   549            608            589            293            112792         1.1235949e-12
       227   1188.0888         115447   550            608            588            294            113407         1.1264895e-12
       228   1203.7556         116050   550            609            591            296            114004         1.1292757e-12
       229   1219.5261         116675   550            610            588            301            114626         1.1322296e-12
       230   1235.7093         117275   551            612            585            306            115221         1.1351264e-12
       231   1251.7578         117909   551            614            588            309            115847         1.1385984e-12
       232   1267.8442         118494   550            616            587            315            116426         1.1420256e-12
       233   1284.1547         119127   550            617            589            317            117054         1.145677e-12 
       234   1300.5765         119711   550            619            591            319            117632         1.1494533e-12
       235   1317.1281         120337   549            622            594            324            118248         1.153763e-12 
       236   1333.7513         120937   549            622            600            328            118838         1.1581053e-12
       237   1350.5424         121555   549            623            607            332            119444         1.162718e-12 
       238   1367.4235         122165   548            626            612            337            120042         1.1676571e-12
       239   1384.4699         122774   548            629            610            343            120644         1.1731525e-12
       240   1401.9061         123362   548            629            616            348            121221         1.1788975e-12
       241   1419.3052         123976   548            631            628            352            121817         1.1850093e-12
       242   1436.791          124563   547            637            641            356            122382         1.1912406e-12
       243   1454.3591         125137   548            641            644            366            122938         1.1978053e-12
       244   1472.0295         125709   548            647            650            370            123494         1.2045644e-12
       245   1489.841          126259   549            648            659            372            124031         1.210892e-12 
       246   1507.8045         126813   550            656            660            378            124569         1.216994e-12 
       247   1525.955          127358   551            667            665            383            125092         1.2224158e-12
       248   1544.1901         127887   557            670            667            388            125605         1.2273524e-12
       249   1562.4927         128425   564            670            666            394            126131         1.2321234e-12
       250   1581.2005         128945   565            673            669            403            126635         1.2365221e-12
       251   1599.7395         129510   566            681            666            410            127187         1.2408474e-12
       252   1618.341          130090   573            682            670            417            127748         1.2449148e-12
       253   1637.0995         130686   578            681            670            422            128335         1.248708e-12 
       254   1655.9198         131264   581            683            662            434            128904         1.2521883e-12
       255   1674.8339         131909   582            687            660            439            129541         1.2555474e-12
       256   1693.8419         132567   584            687            655            448            130193         1.2588785e-12
       257   1712.9253         133210   582            688            653            453            130834         1.2619279e-12
       258   1732.1826         133899   581            685            648            463            131522         1.264976e-12 
       259   1751.5764         134564   584            686            645            467            132182         1.2676916e-12
       260   1771.5512         135269   584            686            638            475            132886         1.2705228e-12
       261   1791.7181         135958   584            686            634            479            133575         1.2732189e-12
       262   1811.9755         136682   584            686            635            481            134296         1.2759815e-12
       263   1832.3899         137392   585            688            629            487            135003         1.2786081e-12
       264   1852.9448         138110   586            687            626            491            135720         1.2813286e-12
       265   1873.6362         138823   585            687            624            495            136432         1.2840176e-12
       266   1894.4685         139536   585            687            621            498            137145         1.2867168e-12
       267   1915.462          140256   584            687            620            500            137865         1.2894566e-12
       268   1936.609          140986   583            687            619            503            138594         1.2922164e-12
       269   1957.8546         141665   583            687            617            506            139272         1.2948401e-12
       270   1979.581          142393   583            687            616            507            140000         1.2976269e-12
       271   2001.1828         143109   582            688            615            509            140715         1.3003964e-12
       272   2022.9384         143811   582            689            614            510            141416         1.3030308e-12
       273   2044.8925         144536   583            689            615            511            142138         1.3058472e-12
       274   2067.0565         145235   585            689            614            512            142835         1.3084464e-12
       275   2089.4043         145926   585            690            614            512            143525         1.3111305e-12
       276   2111.9003         146664   585            691            611            515            144262         1.3139575e-12
       277   2134.5746         147345   585            691            611            516            144942         1.3165677e-12
       278   2157.4042         148069   586            693            607            520            145663         1.3193591e-12
       279   2180.3855         148758   587            692            606            523            146350         1.3220052e-12
       280   2203.8381         149471   586            692            606            524            147063         1.3246902e-12
       281   2227.1319         150170   586            694            606            524            147760         1.3273631e-12
       282   2250.5995         150883   586            694            607            525            148471         1.3300903e-12
       283   2274.2281         151583   586            695            604            528            149170         1.3327655e-12
       284   2298.0518         152308   585            695            601            532            149895         1.3355397e-12
       285   2322.0464         152990   585            696            599            534            150576         1.3381244e-12
       286   2346.2148         153713   585            697            598            536            151297         1.3409065e-12
       287   2370.5409         154396   586            696            597            538            151979         1.3434936e-12
       288   2395.0032         155116   586            696            593            542            152699         1.3462148e-12
       289   2419.6343         155824   587            698            591            545            153403         1.3489056e-12
       290   2444.7993         156539   587            699            588            548            154117         1.351682e-12 
       291   2469.7854         157236   587            699            586            550            154814         1.3543684e-12
       292   2494.8631         157948   588            699            585            552            155524         1.3571429e-12
       293   2520.0996         158640   588            698            584            554            156216         1.3598247e-12
       294   2545.5089         159344   586            698            581            559            156920         1.3625722e-12
       295   2571.0703         160044   587            698            580            560            157619         1.3652417e-12
       296   2596.7899         160758   588            698            580            560            158332         1.3680331e-12
       297   2622.7664         161434   587            697            580            562            159008         1.3706705e-12
       298   2648.8785         162143   587            697            579            564            159716         1.3734899e-12
       299   2675.127          162848   587            697            579            564            160421         1.37626e-12  
       300   2701.9832         163548   587            699            577            566            161119         1.37902e-12  
Loop time of 2701.98 on 16 procs for 300 steps with 163548 atoms

97.1% CPU use with 16 MPI tasks x 1 OpenMP threads

MPI task timing breakdown:
Section |  min time  |  avg time  |  max time  |%varavg| %total
---------------------------------------------------------------
Pair    | 802.41     | 936.67     | 1037.7     | 177.6 | 34.67
Neigh   | 696.16     | 749.69     | 804.8      | 104.3 | 27.75
Comm    | 338.21     | 349.2      | 357.62     |  32.3 | 12.92
Output  | 7.0361     | 7.0363     | 7.0379     |   0.0 |  0.26
Modify  | 504.62     | 649.16     | 828.1      | 298.2 | 24.03
Other   |            | 10.23      |            |       |  0.38

Nlocal:        10221.8 ave       10540 max        9820 min
Histogram: 1 0 2 1 4 0 2 4 0 2
Nghost:        7828.12 ave        8182 max        7561 min
Histogram: 1 2 2 5 1 1 1 1 1 1
Neighs:         124316 ave      130232 max      116536 min
Histogram: 1 0 2 1 4 0 2 2 2 2

Total # of neighbors = 1989048
Ave neighs/atom = 12.161861
Neighbor list builds = 26352
Dangerous builds = 26052

Total wall time: 0:45:29
