LAMMPS (23 Jun 2022 - Update 4)
  using 1 OpenMP thread(s) per MPI task
package omp 0
using multi-threaded neighbor list subroutines
#-----------------------------------------------------------------------------#
#                NUFEB Simulation: Heterotrophic Biofilm Growth               #
#-----------------------------------------------------------------------------#


#-----------------------------System Settings---------------------------------#

units si                                    # using si units (m, s, kg)
atom_style      coccus                      # using nufeb coccus atom style
atom_modify     map array sort 10 0         # map array - find atoms using indices
		                            # sort every 10

boundary        pp pp ff                    # periodic boundaries in x and y
                                            # fixed boundary in z

newton          off                         # forces between local and ghost
                                            # atoms are computed in each
					     # processor without communication

processors      * * 1                       # processor grid

comm_modify     vel yes                     # communicate velocities for ghost atoms

read_data       atom_ch.in	             # read atom.in file which defines domain size
Reading data file ...
  orthogonal box = (0 0 0) to (6e-05 6e-05 6e-05)
  4 by 4 by 1 MPI processor grid
  reading atoms ...
  150 atoms
  read_data CPU = 0.022 seconds
                                            # and initial atoms


#--------------------Microbes and Functional Groups-------------------------#

group           CROSS1   type 1               # assign type 1,2 atoms to CROSS group
50 atoms in group CROSS1
group           CROSS2   type 2
50 atoms in group CROSS2
group		CHEATER  type 3
50 atoms in group CHEATER
group           dead     type 4
0 atoms in group dead
group		EPS	 type 5
0 atoms in group EPS

neighbor        5e-7 bin                   # setting neighbour skin distance and style

neigh_modify    check yes                  # rebuild neighbour list if any atom
                                           # had moved more than half the skin distance


#--------------------------Mesh Grid and Substrates--------------------------#

# defining grid sytle, substrate names, and grid size
grid_style      nufeb/chemostat 3 sub metab1 metab2 5e-6

# set diffusion boundary conditions and initial concentrations (liquid:kg/m3)
grid_modify     set sub      pp pp nd  1.8e-4
No /omp style for force computation currently active
grid_modify     set metab1   pp pp nd  1e-4
No /omp style for force computation currently active
grid_modify     set metab2   pp pp nd  1e-4
No /omp style for force computation currently active


#--------------------------Biological Processes-------------------------------#

# heterotrophs growth
fix growth_cross1 CROSS1 nufeb/growth/cross1 sub 3.5e-5 metab2 4e-3 metab1 growth 0.009 yield 0.6 decay 2.6e-6 metab1_exp 20 epsyield 0.12 epsdens 30

fix growth_cross2 CROSS2 nufeb/growth/cross2 sub 3.5e-5 metab1 4e-3 metab2 growth 0.009 yield 0.6 decay 2.6e-6 metab2_exp 20 epsyield 0.12 epsdens 30

fix growth_cheater CHEATER nufeb/growth/cheater sub 3.5e-5 metab1 1e-3 metab2 1e-3 growth 0.009 yield 0.6 decay 2.6e-6 epsyield 0.12 epsdens 30

# heterotrophs division, division diameter: 1.36e-6
fix div1 CROSS1 nufeb/division/coccus 1.36e-6 359
fix div2 CROSS2 nufeb/division/coccus 1.36e-6 1130
fix div3 CHEATER nufeb/division/coccus 1.36e-6 2413

fix death1 CROSS1 nufeb/death/diameter dead 5.43e-7
fix death2 CROSS2 nufeb/death/diameter dead 5.43e-7
fix death3 CHEATER nufeb/death/diameter dead 5.43e-7

# EPS secretion from heterotrophs
fix eps1 CROSS1 nufeb/eps_secretion 5 EPS 1.1 30 4208
fix eps2 CROSS2 nufeb/eps_secretion 5 EPS 1.1 30 6515
fix eps3 CROSS2 nufeb/eps_secretion 5 EPS 1.1 30 9334
#---------------------------Physical Processes--------------------------------#

pair_style  gran/hooke/history 1e-4 NULL 1e-5 NULL 0.0 0    # pairwise interaction
pair_coeff  * *                                             # between atoms

# pairwise interaction between z-wall and atoms
fix wall all wall/gran hooke/history 1e-3 NULL 1e-4 NULL 0 0 zplane 0.0 1e-04

fix vis all viscous 1e-5                                    # viscous damping force

fix grav all gravity 9.81 vector 0.0 0.0 -1.0

fix nve all nve/limit 1e-7                                  # NVE integration with
                                                            # maximum distance limit


#---------------------------Post-Physical Processes---------------------------#

fix coeff_sub all nufeb/diffusion_coeff sub ratio 0.8       # defining diffusion coeff in the biofilm
fix coeff_metab1 all nufeb/diffusion_coeff metab1 ratio 0.8    # region is 80% of the value in liquid
fix coeff_metab2 all nufeb/diffusion_coeff metab2 ratio 0.8

#---------------------------Chemical Processes---------------------------------#

fix diff_sub all nufeb/diffusion_reaction sub 1e-9        # diffusion reaction for updating
fix diff_metab1 all nufeb/diffusion_reaction metab1 4e-9     # distribusion of substrate concentration
fix diff_metab2 all nufeb/diffusion_reaction metab2 4e-9

#--------------------------Computations and Outputs----------------------------#

variable mass equal "mass(all)"                             # total mass
variable ncross1 equal "count(CROSS1)"                      # total # of CROSS1
variable ncross2 equal "count(CROSS2)"                      # total # of CROSS2
variable ncheater equal "count(CHEATER)"
variable ndead equal "count(dead)"
variable neps equal "count(EPS)"

shell mkdir vtk_CHEPS_ch                                            # dump vtk files to /vtk folder
dump du1 all vtk 10 vtk_CHEPS_ch/dump*.vtu id type diameter         # require build NUFEB with vtk option
dump du2 all grid/vtk 10 vtk_CHEPS_ch/dump_%_*.vti con rea den gro

#dump du3 all movie 10 movie.avi type diameter view 80 60    # dump video
#dump_modify du3 acolor 1 blue acolor 2 lightgrey framerate 10


                                                            # dump hdf5 files to /hdf5 folder
#shell mkdir hdf5                                           # require build NUFEB with hdf5 option
#dump du3 all nufeb/hdf5 10 dump.h5 id type x y z vx vy vz fx fy fz radius conc reac

thermo_style custom step cpu atoms v_ncross1 v_ncross2 v_ncheater v_ndead v_neps v_mass     # screen and log outputs
thermo 1
thermo_modify   lost ignore

#-----------------------------------Run----------------------------------------#

# issue run command, define timesteps for physical (pairdt) and chemical (diffdt) processes
run_style nufeb diffdt 1e-4 difftol 1e-6 pairdt 1e-2 pairtol 1 pairmax 1000 diffmax 5000

timestep 12000                                               # define biological timesteps (1000s)

run 300                                                    # growing biofilm for 900x1000s
Generated 0 of 6 mixed pair_coeff terms from geometric mixing rule
Last active /omp style is pair_style gran/hooke/history/omp
Neighbor list info ...
  update every 1 steps, delay 10 steps, check yes
  max neighbors/atom: 2000, page size: 100000
  master list distance cutoff = 2.49e-06
  ghost atom cutoff = 2.49e-06
  binsize = 1.245e-06, bins = 49 49 49
  1 neighbor lists, perpetual/occasional/extra = 1 0 0
  (1) pair gran/hooke/history/omp, perpetual
      attributes: half, newton off, size, history, omp
      pair build: half/size/bin/newtoff/omp
      stencil: full/bin/3d
      bin: standard
Per MPI rank memory allocation (min/avg/max) = 11.02 | 11.02 | 11.02 Mbytes
   Step          CPU          Atoms      v_ncross1      v_ncross2      v_ncheater      v_ndead         v_neps         v_mass    
         0   0                    150   50             50             50             0              0              1.3295396e-13
         1   0.38551685           491   90             85             83             0              233            1.643097e-13 
         2   0.76554853           908   122            126            123            0              537            1.8137827e-13
         3   1.1144822           1248   130            143            139            0              836            1.955803e-13 
         4   1.4049441           1568   138            152            150            0              1128           2.0869759e-13
         5   1.5863894           1910   142            161            157            0              1450           2.2151769e-13
         6   1.7362427           2232   147            170            161            0              1754           2.3380066e-13
         7   1.8920227           2598   156            183            169            0              2090           2.4596678e-13
         8   2.0163155           2965   166            191            178            0              2430           2.5775199e-13
         9   2.1193969           3333   172            201            185            0              2775           2.6934089e-13
        10   2.2798491           3713   176            212            195            0              3130           2.8079898e-13
        11   2.3885886           4105   180            223            199            0              3503           2.9206305e-13
        12   2.495725            4492   184            228            205            0              3875           3.0309618e-13
        13   2.6007478           4894   191            234            214            0              4255           3.1397661e-13
        14   2.7142832           5280   197            237            218            0              4628           3.2460035e-13
        15   2.8315661           5687   202            242            226            0              5017           3.3510319e-13
        16   2.9235652           6103   210            247            234            0              5412           3.4530046e-13
        17   3.013693            6520   217            252            237            0              5814           3.5537334e-13
        18   3.1395722           6938   225            257            244            0              6212           3.6519623e-13
        19   3.2422122           7340   231            261            248            0              6600           3.7479624e-13
        20   4.1669949           7746   232            264            257            0              6993           3.8420549e-13
        21   4.270058            8164   238            272            263            0              7391           3.9346985e-13
        22   4.3456114           8593   239            278            275            0              7801           4.0251433e-13
        23   4.4263818           9004   242            282            286            0              8194           4.1127656e-13
        24   4.5240434           9415   247            283            297            0              8588           4.1994528e-13
        25   4.6211665           9825   248            290            302            0              8985           4.2840761e-13
        26   4.7007838          10244   251            295            308            0              9390           4.3663071e-13
        27   4.8002234          10624   252            298            314            0              9760           4.4467402e-13
        28   4.9165085          11039   256            303            319            0              10161          4.5260264e-13
        29   5.0195013          11466   263            309            325            0              10569          4.6041047e-13
        30   5.1833547          11856   264            311            330            0              10951          4.6796e-13   
        31   5.3214788          12283   269            318            336            0              11360          4.755875e-13 
        32   5.4369001          12691   272            320            339            0              11760          4.8286798e-13
        33   5.5698149          13101   273            324            342            0              12162          4.9007078e-13
        34   5.7481714          13499   274            325            349            0              12551          4.9704033e-13
        35   5.9809211          13923   275            328            356            0              12964          5.0422445e-13
        36   6.2647705          14355   284            330            365            0              13376          5.1110839e-13
        37   6.6652358          14765   287            336            372            0              13770          5.1776884e-13
        38   7.1793351          15172   290            338            376            0              14168          5.2424836e-13
        39   7.994372           15608   292            342            382            0              14592          5.3076959e-13
        40   8.5808705          15998   292            343            389            0              14974          5.3687343e-13
        41   9.4335318          16431   294            345            393            0              15399          5.4295119e-13
        42   10.288722          16852   301            348            396            0              15807          5.4885487e-13
        43   11.263208          17266   305            350            398            0              16213          5.5455025e-13
        44   12.157335          17692   307            351            402            0              16632          5.602306e-13 
        45   13.059365          18106   311            352            406            0              17037          5.6571411e-13
        46   13.970492          18520   314            353            408            0              17445          5.7098253e-13
        47   14.91033           18940   314            355            410            0              17861          5.7625599e-13
        48   15.861395          19355   315            359            415            0              18266          5.8131445e-13
        49   16.832721          19781   319            361            418            0              18683          5.8636231e-13
        50   58.780748          20232   323            365            422            0              19122          5.9131801e-13
        51   59.813565          20641   323            367            430            0              19521          5.9599031e-13
        52   60.877588          21085   323            371            436            0              19955          6.0085684e-13
        53   61.972656          21505   326            376            439            0              20364          6.0553383e-13
        54   63.104046          21950   333            379            446            0              20792          6.1029644e-13
        55   64.215543          22390   336            383            451            0              21220          6.1486406e-13
        56   65.357005          22839   338            385            453            0              21663          6.1940106e-13
        57   66.522548          23257   339            388            454            0              22076          6.2368268e-13
        58   67.710688          23722   343            389            457            0              22533          6.2802962e-13
        59   68.936139          24160   349            393            458            0              22960          6.3220664e-13
        60   78.892059          24604   350            396            459            0              23399          6.3630045e-13
        61   80.157774          25046   351            398            462            0              23835          6.4030814e-13
        62   81.443447          25503   354            399            465            0              24285          6.4427874e-13
        63   82.751512          25967   356            400            475            0              24736          6.4817795e-13
        64   84.150195          26393   357            402            477            0              25157          6.5187527e-13
        65   85.510274          26866   360            404            481            0              25621          6.5570068e-13
        66   86.904505          27318   361            407            487            0              26063          6.5942692e-13
        67   88.352775          27780   363            409            489            0              26519          6.6323216e-13
        68   89.801161          28218   365            410            492            0              26951          6.6667344e-13
        69   91.291062          28687   365            411            494            0              27417          6.7041164e-13
        70   104.65948          29134   365            411            498            0              27860          6.7400354e-13
        71   106.22174          29578   365            411            500            0              28302          6.7760819e-13
        72   107.81254          30017   365            413            504            0              28735          6.8101792e-13
        73   109.42065          30469   367            414            510            0              29178          6.844018e-13 
        74   111.06734          30914   368            415            513            0              29618          6.8773437e-13
        75   112.74673          31373   370            422            514            0              30067          6.9102202e-13
        76   114.46445          31831   372            424            515            0              30520          6.943245e-13 
        77   116.21813          32285   374            425            519            0              30967          6.9749884e-13
        78   117.99965          32763   375            427            522            0              31439          7.0075089e-13
        79   119.81899          33208   377            428            522            0              31881          7.0379105e-13
        80   121.7633           33670   378            429            526            0              32337          7.0692908e-13
        81   123.68229          34117   381            429            527            0              32780          7.0994606e-13
        82   125.6459           34581   381            430            529            0              33241          7.1317133e-13
        83   127.66825          35035   383            430            537            0              33685          7.163515e-13 
        84   129.69885          35502   384            431            540            0              34147          7.1981804e-13
        85   131.79706          35963   385            432            542            0              34604          7.2317138e-13
        86   134.02077          36414   387            432            545            0              35050          7.2662663e-13
        87   136.20653          36879   389            434            552            0              35504          7.3041045e-13
        88   138.42685          37342   389            436            554            0              35963          7.3416324e-13
        89   140.77337          37799   390            436            560            0              36413          7.3799045e-13
        90   143.24291          38261   390            438            568            0              36865          7.4207009e-13
        91   145.70815          38715   391            441            577            0              37306          7.4629246e-13
        92   148.18771          39176   391            443            584            0              37758          7.5086977e-13
        93   150.77717          39626   392            444            593            0              38197          7.5560928e-13
        94   153.36515          40078   394            444            601            0              38639          7.6070762e-13
        95   155.97241          40538   395            447            613            0              39083          7.6591477e-13
        96   158.64383          40977   396            449            625            0              39507          7.7132102e-13
        97   161.37             41426   397            451            634            0              39944          7.770636e-13 
        98   164.14689          41865   398            452            645            0              40370          7.8316953e-13
        99   166.98119          42301   401            453            661            0              40786          7.8953121e-13
       100   169.97366          42725   401            456            676            0              41192          7.9605906e-13
       101   172.96153          43166   406            457            688            0              41615          8.0285743e-13
       102   175.90544          43610   409            459            709            0              42033          8.1007927e-13
       103   178.90721          44036   411            461            722            1              42441          8.1719337e-13
       104   181.9862           44457   413            467            738            1              42838          8.2445918e-13
       105   185.07497          44901   417            472            755            1              43256          8.3202378e-13
       106   188.20653          45329   421            472            771            1              43664          8.3976345e-13
       107   191.43287          45782   423            478            791            1              44089          8.4752012e-13
       108   194.65076          46199   427            480            807            3              44482          8.5528222e-13
       109   197.89732          46649   430            480            833            3              44903          8.6316343e-13
       110   201.3361           47079   432            481            850            4              45312          8.7097293e-13
       111   204.67833          47476   435            482            866            4              45689          8.7867831e-13
       112   208.12109          47913   440            482            878            4              46109          8.861948e-13 
       113   211.55644          48361   446            488            897            4              46526          8.9321577e-13
       114   215.0811           48808   449            489            917            4              46949          8.9999503e-13
       115   218.64585          49258   455            490            931            5              47377          9.0682462e-13
       116   222.27391          49696   458            493            945            6              47794          9.1338815e-13
       117   225.96885          50150   461            494            959            7              48229          9.1980205e-13
       118   229.71974          50594   462            494            969            7              48662          9.259526e-13 
       119   233.56941          51050   467            500            980            9              49094          9.3184939e-13
       120   237.59609          51511   470            500            991            10             49540          9.3734503e-13
       121   241.62513          51979   473            503            1001           11             49991          9.4264771e-13
       122   245.66142          52443   476            504            1005           18             50440          9.4718799e-13
       123   249.90121          52945   481            507            1014           18             50925          9.5141171e-13
       124   254.0971           53434   485            509            1013           21             51406          9.5489699e-13
       125   258.41036          53955   488            510            1013           29             51915          9.5796229e-13
       126   262.71035          54443   491            514            1011           35             52392          9.6073189e-13
       127   267.15156          54956   492            515            1006           43             52900          9.6329242e-13
       128   271.5912           55488   494            515            1005           45             53429          9.654577e-13 
       129   276.1068           56034   497            517            1003           50             53967          9.6732338e-13
       130   280.87154          56585   502            518            1003           53             54509          9.6915752e-13
       131   285.5565           57141   503            520            993            64             55061          9.7072347e-13
       132   290.36305          57691   504            524            994            64             55605          9.7208005e-13
       133   295.22305          58278   506            525            993            66             56188          9.7351725e-13
       134   300.13766          58870   508            525            993            67             56777          9.7485449e-13
       135   305.1154           59447   508            525            992            68             57354          9.7610269e-13
       136   310.17056          60023   508            526            988            72             57929          9.7730132e-13
       137   315.3221           60614   509            528            985            76             58516          9.7848502e-13
       138   320.57652          61212   509            530            985            78             59110          9.7975221e-13
       139   325.95042          61794   509            530            983            80             59692          9.809807e-13 
       140   331.58377          62376   509            532            983            80             60272          9.8226373e-13
       141   337.15342          62973   509            534            978            85             60867          9.83563e-13  
       142   342.82503          63549   510            534            977            87             61441          9.8482463e-13
       143   348.59174          64141   510            534            974            91             62032          9.8613284e-13
       144   354.46378          64719   510            534            970            95             62610          9.8748743e-13
       145   360.44652          65307   511            534            969            96             63197          9.8879852e-13
       146   366.53047          65913   512            536            968            97             63800          9.9029666e-13
       147   372.72024          66482   513            538            966            99             64366          9.9159952e-13
       148   379.01973          67078   515            540            964            101            64958          9.9317994e-13
       149   385.4086           67675   516            544            961            104            65550          9.9463597e-13
       150   392.06177          68254   517            546            958            107            66126          9.9610177e-13
       151   398.66138          68844   518            546            959            108            66713          9.9761675e-13
       152   405.34051          69448   518            546            958            111            67315          9.9919595e-13
       153   412.12646          70011   518            548            955            114            67876          1.0005807e-12
       154   419.01968          70629   519            548            950            119            68493          1.0023084e-12
       155   426.04192          71199   519            549            947            123            69061          1.0037297e-12
       156   433.15036          71795   519            550            944            126            69656          1.0053248e-12
       157   440.35825          72393   519            550            942            128            70254          1.0069005e-12
       158   447.66106          72980   519            550            939            132            70840          1.0085e-12   
       159   455.0932           73570   520            550            934            139            71427          1.0100907e-12
       160   462.82429          74145   521            550            934            140            72000          1.0116252e-12
       161   470.39627          74739   522            551            928            146            72592          1.0133033e-12
       162   478.13147          75330   523            551            929            146            73181          1.0149291e-12
       163   485.93503          75913   523            551            930            146            73763          1.0166341e-12
       164   493.81084          76491   524            552            925            151            74339          1.0182171e-12
       165   501.83247          77108   524            553            924            152            74955          1.0200115e-12
       166   509.93149          77680   525            554            924            153            75524          1.0216106e-12
       167   518.12269          78289   525            556            920            157            76131          1.0233824e-12
       168   526.43861          78866   525            557            919            158            76707          1.0250061e-12
       169   534.85107          79452   526            557            917            160            77292          1.0266809e-12
       170   543.63345          80062   527            558            918            161            77898          1.0284515e-12
       171   552.24241          80643   527            558            917            162            78479          1.0301133e-12
       172   560.92323          81230   527            558            914            165            79066          1.0317185e-12
       173   569.72498          81821   528            559            912            167            79655          1.0333772e-12
       174   578.60549          82409   529            560            911            168            80241          1.0350358e-12
       175   587.61295          83011   529            561            910            170            80841          1.0368389e-12
       176   596.69991          83587   530            562            909            171            81415          1.0384776e-12
       177   605.90826          84190   531            562            903            177            82017          1.0403577e-12
       178   615.24809          84783   531            562            898            184            82608          1.0421075e-12
       179   624.67563          85364   532            562            894            188            83188          1.0439371e-12
       180   634.37834          85954   532            563            887            197            83775          1.0456924e-12
       181   644.01302          86549   532            563            884            200            84370          1.0475808e-12
       182   653.75181          87154   533            564            880            204            84973          1.0493578e-12
       183   663.56214          87735   534            565            878            206            85552          1.0511684e-12
       184   673.47969          88326   534            565            875            209            86143          1.052987e-12 
       185   683.50892          88922   534            565            874            210            86739          1.054862e-12 
       186   693.64055          89508   535            565            872            212            87324          1.0567002e-12
       187   703.86831          90136   538            565            870            214            87949          1.0586116e-12
       188   714.21639          90705   538            565            864            220            88518          1.0603595e-12
       189   724.64021          91310   538            565            858            227            89122          1.0622488e-12
       190   735.41375          91915   538            567            856            231            89723          1.0641136e-12
       191   746.06562          92502   538            569            856            231            90308          1.0660043e-12
       192   756.82036          93108   538            569            850            237            90914          1.0679548e-12
       193   767.69886          93685   538            569            849            238            91491          1.0698249e-12
       194   778.67387          94297   538            570            848            240            92101          1.0717895e-12
       195   789.75932          94888   539            570            843            245            92691          1.0737721e-12
       196   800.9465           95487   539            570            840            248            93290          1.0757722e-12
       197   812.23021          96094   540            574            839            251            93890          1.0777495e-12
       198   823.67392          96697   540            576            837            253            94491          1.0797478e-12
       199   835.21641          97286   540            576            835            255            95080          1.0817479e-12
       200   847.17066          97887   539            576            833            258            95681          1.0838021e-12
       201   858.96342          98465   541            576            830            261            96257          1.0857026e-12
       202   870.82952          99088   542            576            824            267            96879          1.0878813e-12
       203   882.80632          99683   543            576            823            269            97472          1.0899021e-12
       204   894.89109         100293   543            576            823            271            98080          1.0920089e-12
       205   907.07823         100890   544            578            821            274            98673          1.094034e-12 
       206   919.38334         101496   544            578            821            275            99278          1.0961366e-12
       207   931.78463         102105   545            579            818            278            99885          1.0981938e-12
       208   944.31359         102704   545            580            817            279            100483         1.1002498e-12
       209   956.98518         103330   546            580            815            281            101108         1.1024032e-12
       210   969.97191         103914   547            581            810            286            101690         1.1043877e-12
       211   982.88238         104541   548            581            808            289            102315         1.1065426e-12
       212   995.88589         105133   548            581            806            291            102907         1.1085782e-12
       213   1009.0279         105754   548            581            802            295            103528         1.1107099e-12
       214   1022.2697         106360   548            581            802            296            104133         1.112816e-12 
       215   1035.6413         106955   548            581            802            298            104726         1.1148851e-12
       216   1049.1498         107571   549            581            800            301            105340         1.1170561e-12
       217   1062.7552         108180   549            583            797            304            105947         1.1191683e-12
       218   1076.4407         108782   549            582            797            306            106548         1.1214619e-12
       219   1090.3182         109382   549            582            796            308            107147         1.1236397e-12
       220   1104.5386         109982   549            583            792            312            107746         1.1259016e-12
       221   1118.6038         110584   549            583            788            316            108348         1.128075e-12 
       222   1132.8019         111202   549            583            786            319            108965         1.130444e-12 
       223   1147.1087         111791   549            583            786            321            109552         1.1326609e-12
       224   1161.5415         112412   549            583            782            325            110173         1.1352311e-12
       225   1176.1293         112988   550            584            783            329            110742         1.1377247e-12
       226   1190.825          113621   550            584            781            332            111374         1.1405275e-12
       227   1205.6527         114211   550            586            780            333            111962         1.1431609e-12
       228   1220.7394         114828   550            586            781            338            112573         1.1461256e-12
       229   1235.9314         115424   550            587            781            341            113165         1.149094e-12 
       230   1251.5775         116030   549            588            780            346            113767         1.1521358e-12
       231   1267.0884         116631   549            589            778            350            114365         1.1555943e-12
       232   1282.7071         117233   549            590            780            355            114959         1.1592002e-12
       233   1298.4362         117827   549            590            780            361            115547         1.1630616e-12
       234   1314.2975         118429   549            594            786            365            116135         1.1672382e-12
       235   1330.3154         119027   548            598            792            368            116721         1.1717181e-12
       236   1346.4716         119611   548            601            797            370            117295         1.1762988e-12
       237   1362.7027         120197   548            605            802            373            117869         1.1813411e-12
       238   1378.9965         120799   549            606            809            375            118460         1.1868062e-12
       239   1395.3538         121386   549            608            825            377            119027         1.1924552e-12
       240   1412.198          121980   550            609            838            380            119603         1.1982542e-12
       241   1428.8436         122566   549            611            845            386            120175         1.2045526e-12
       242   1445.6337         123146   549            612            852            388            120745         1.2109669e-12
       243   1462.5808         123710   550            613            860            392            121295         1.2176622e-12
       244   1479.5386         124303   552            613            870            405            121863         1.2247976e-12
       245   1496.6946         124858   553            617            874            416            122398         1.2319569e-12
       246   1513.8758         125434   555            619            885            418            122957         1.2396635e-12
       247   1531.2369         126023   555            620            904            425            123519         1.247421e-12 
       248   1548.739          126574   554            623            917            435            124045         1.2548891e-12
       249   1566.3535         127134   553            629            929            440            124583         1.2623381e-12
       250   1584.3781         127686   556            629            937            450            125114         1.2694631e-12
       251   1602.3074         128244   560            631            941            458            125654         1.2763355e-12
       252   1620.2992         128752   566            633            952            463            126138         1.2826954e-12
       253   1638.4632         129299   569            638            949            476            126667         1.2888606e-12
       254   1656.6263         129815   571            643            950            487            127164         1.2944653e-12
       255   1674.9585         130329   572            645            949            498            127665         1.2996407e-12
       256   1693.4266         130878   578            649            945            510            128196         1.3043041e-12
       257   1711.939          131443   580            654            933            527            128749         1.3084538e-12
       258   1730.586          131966   584            659            923            541            129259         1.3119528e-12
       259   1749.2575         132556   587            662            917            550            129840         1.3153419e-12
       260   1768.4158         133183   589            663            910            558            130463         1.3185383e-12
       261   1787.2519         133784   589            665            902            569            131059         1.321164e-12 
       262   1806.2959         134419   592            667            891            581            131688         1.3237287e-12
       263   1825.3506         135116   593            665            889            588            132381         1.3262118e-12
       264   1844.5842         135768   591            666            885            595            133031         1.328378e-12 
       265   1863.9688         136479   588            665            880            606            133740         1.3306706e-12
       266   1883.4888         137170   584            667            867            623            134429         1.3330064e-12
       267   1903.299          137876   584            667            863            630            135132         1.3352538e-12
       268   1923.2636         138582   585            667            858            635            135837         1.3375509e-12
       269   1943.3343         139289   586            667            857            639            136540         1.3397878e-12
       270   1963.8608         139990   587            667            854            642            137240         1.3420399e-12
       271   1984.242          140703   586            666            850            648            137953         1.3443139e-12
       272   2004.7394         141400   586            669            848            650            138647         1.3465755e-12
       273   2025.3845         142140   587            669            845            653            139386         1.3489561e-12
       274   2046.2046         142846   587            671            843            655            140090         1.3512604e-12
       275   2067.1306         143551   587            672            838            661            140793         1.3535435e-12
       276   2088.1797         144240   587            672            834            666            141481         1.3559411e-12
       277   2109.3721         144968   588            672            828            672            142208         1.3583929e-12
       278   2130.7413         145661   588            672            826            675            142900         1.3607823e-12
       279   2152.2625         146379   588            673            825            676            143617         1.3632607e-12
       280   2174.2947         147063   588            673            823            678            144301         1.3656112e-12
       281   2196.0408         147804   589            672            822            681            145040         1.3682135e-12
       282   2217.8712         148502   589            673            820            683            145737         1.3705228e-12
       283   2239.8997         149209   589            673            816            687            146444         1.3729343e-12
       284   2262.086          149891   589            674            812            691            147125         1.375225e-12 
       285   2284.4311         150610   590            674            810            693            147843         1.3777031e-12
       286   2306.9086         151292   590            674            811            693            148524         1.3800199e-12
       287   2329.5388         152010   591            674            811            693            149241         1.3824667e-12
       288   2352.3309         152685   591            674            808            696            149916         1.3847103e-12
       289   2375.2976         153428   593            675            805            699            150656         1.3872514e-12
       290   2398.777          154094   593            676            802            702            151321         1.3894843e-12
       291   2422.1371         154841   594            676            801            704            152066         1.3920604e-12
       292   2445.6266         155497   593            675            799            709            152721         1.3942872e-12
       293   2469.261          156220   592            674            799            712            153443         1.3968378e-12
       294   2493.013          156914   592            674            800            712            154136         1.399243e-12 
       295   2516.9089         157615   592            674            798            714            154837         1.4016786e-12
       296   2541.0242         158307   592            673            797            716            155529         1.4041509e-12
       297   2565.2776         159014   592            674            793            720            156235         1.406598e-12 
       298   2589.5945         159689   592            674            792            722            156909         1.409021e-12 
       299   2614.1017         160393   592            674            791            723            157613         1.4115053e-12
       300   2639.1202         161080   592            676            790            725            158297         1.4139192e-12
Loop time of 2639.12 on 16 procs for 300 steps with 161080 atoms

95.7% CPU use with 16 MPI tasks x 1 OpenMP threads

MPI task timing breakdown:
Section |  min time  |  avg time  |  max time  |%varavg| %total
---------------------------------------------------------------
Pair    | 823.09     | 907.45     | 986.84     | 130.2 | 34.38
Neigh   | 689.73     | 740.28     | 793.58     | 107.5 | 28.05
Comm    | 322.39     | 329.46     | 334.87     |  21.8 | 12.48
Output  | 67.799     | 67.799     | 67.801     |   0.0 |  2.57
Modify  | 498.13     | 584.25     | 716.19     | 255.4 | 22.14
Other   |            | 9.878      |            |       |  0.37

Nlocal:        10067.5 ave       10382 max        9824 min
Histogram: 4 0 1 3 2 1 1 2 0 2
Nghost:        7773.75 ave        8161 max        7532 min
Histogram: 2 2 4 2 1 2 1 1 0 1
Neighs:         122934 ave      129858 max      118288 min
Histogram: 3 1 3 2 3 0 0 2 1 1

Total # of neighbors = 1966945
Ave neighs/atom = 12.210982
Neighbor list builds = 26399
Dangerous builds = 26099

Total wall time: 0:44:00
