LAMMPS (23 Jun 2022 - Update 4)
  using 1 OpenMP thread(s) per MPI task
package omp 0
using multi-threaded neighbor list subroutines
#-----------------------------------------------------------------------------#
#                NUFEB Simulation: Heterotrophic Biofilm Growth               #
#-----------------------------------------------------------------------------#


#-----------------------------System Settings---------------------------------#

units si                                    # using si units (m, s, kg)
atom_style      coccus                      # using nufeb coccus atom style
atom_modify     map array sort 10 0         # map array - find atoms using indices
		                            # sort every 10

boundary        pp pp ff                    # periodic boundaries in x and y
                                            # fixed boundary in z

newton          off                         # forces between local and ghost
                                            # atoms are computed in each
					     # processor without communication

processors      * * 1                       # processor grid

comm_modify     vel yes                     # communicate velocities for ghost atoms

read_data       atom_ch.in	             # read atom.in file which defines domain size
Reading data file ...
  orthogonal box = (0 0 0) to (6e-05 6e-05 6e-05)
  4 by 4 by 1 MPI processor grid
  reading atoms ...
  150 atoms
  read_data CPU = 0.035 seconds
                                            # and initial atoms


#--------------------Microbes and Functional Groups-------------------------#

group           CROSS1   type 1               # assign type 1,2 atoms to CROSS group
50 atoms in group CROSS1
group           CROSS2   type 2
50 atoms in group CROSS2
group		CHEATER  type 3
50 atoms in group CHEATER
group           dead     type 4
0 atoms in group dead
group		EPS	 type 5
0 atoms in group EPS

neighbor        5e-7 bin                   # setting neighbour skin distance and style

neigh_modify    check yes                  # rebuild neighbour list if any atom
                                           # had moved more than half the skin distance


#--------------------------Mesh Grid and Substrates--------------------------#

# defining grid sytle, substrate names, and grid size
grid_style      nufeb/chemostat 3 sub metab1 metab2 5e-6

# set diffusion boundary conditions and initial concentrations (liquid:kg/m3)
grid_modify     set sub      pp pp nd  1.8e-4
No /omp style for force computation currently active
grid_modify     set metab1   pp pp nd  1e-4
No /omp style for force computation currently active
grid_modify     set metab2   pp pp nd  1e-4
No /omp style for force computation currently active


#--------------------------Biological Processes-------------------------------#

# heterotrophs growth
fix growth_cross1 CROSS1 nufeb/growth/cross1 sub 3.5e-5 metab2 4e-3 metab1 growth 0.009 yield 0.6 decay 2.6e-6 metab1_exp 20 epsyield 0.12 epsdens 30

fix growth_cross2 CROSS2 nufeb/growth/cross2 sub 3.5e-5 metab1 4e-3 metab2 growth 0.009 yield 0.6 decay 2.6e-6 metab2_exp 20 epsyield 0.12 epsdens 30

fix growth_cheater CHEATER nufeb/growth/cheater sub 3.5e-5 metab1 1e-3 metab2 1e-3 growth 0.009 yield 0.6 decay 2.6e-6 epsyield 0.12 epsdens 30

# heterotrophs division, division diameter: 1.36e-6
fix div1 CROSS1 nufeb/division/coccus 1.36e-6 224
fix div2 CROSS2 nufeb/division/coccus 1.36e-6 590
fix div3 CHEATER nufeb/division/coccus 1.36e-6 1198

fix death1 CROSS1 nufeb/death/diameter dead 5.43e-7
fix death2 CROSS2 nufeb/death/diameter dead 5.43e-7
fix death3 CHEATER nufeb/death/diameter dead 5.43e-7

# EPS secretion from heterotrophs
fix eps1 CROSS1 nufeb/eps_secretion 5 EPS 1.1 30 2048
fix eps2 CROSS2 nufeb/eps_secretion 5 EPS 1.1 30 3140
fix eps3 CROSS2 nufeb/eps_secretion 5 EPS 1.1 30 4474
#---------------------------Physical Processes--------------------------------#

pair_style  gran/hooke/history 1e-4 NULL 1e-5 NULL 0.0 0    # pairwise interaction
pair_coeff  * *                                             # between atoms

# pairwise interaction between z-wall and atoms
fix wall all wall/gran hooke/history 1e-3 NULL 1e-4 NULL 0 0 zplane 0.0 1e-04

fix vis all viscous 1e-5                                    # viscous damping force

fix grav all gravity 9.81 vector 0.0 0.0 -1.0

fix nve all nve/limit 1e-7                                  # NVE integration with
                                                            # maximum distance limit


#---------------------------Post-Physical Processes---------------------------#

fix coeff_sub all nufeb/diffusion_coeff sub ratio 0.8       # defining diffusion coeff in the biofilm
fix coeff_metab1 all nufeb/diffusion_coeff metab1 ratio 0.8    # region is 80% of the value in liquid
fix coeff_metab2 all nufeb/diffusion_coeff metab2 ratio 0.8

#---------------------------Chemical Processes---------------------------------#

fix diff_sub all nufeb/diffusion_reaction sub 1e-9        # diffusion reaction for updating
fix diff_metab1 all nufeb/diffusion_reaction metab1 4e-9     # distribusion of substrate concentration
fix diff_metab2 all nufeb/diffusion_reaction metab2 4e-9

#--------------------------Computations and Outputs----------------------------#

variable mass equal "mass(all)"                             # total mass
variable ncross1 equal "count(CROSS1)"                      # total # of CROSS1
variable ncross2 equal "count(CROSS2)"                      # total # of CROSS2
variable ncheater equal "count(CHEATER)"
variable ndead equal "count(dead)"
variable neps equal "count(EPS)"

shell mkdir vtk_CHEPS_ch                                            # dump vtk files to /vtk folder
dump du1 all vtk 10 vtk_CHEPS_ch/dump*.vtu id type diameter         # require build NUFEB with vtk option
dump du2 all grid/vtk 10 vtk_CHEPS_ch/dump_%_*.vti con rea den gro

#dump du3 all movie 10 movie.avi type diameter view 80 60    # dump video
#dump_modify du3 acolor 1 blue acolor 2 lightgrey framerate 10


                                                            # dump hdf5 files to /hdf5 folder
#shell mkdir hdf5                                           # require build NUFEB with hdf5 option
#dump du3 all nufeb/hdf5 10 dump.h5 id type x y z vx vy vz fx fy fz radius conc reac

thermo_style custom step cpu atoms v_ncross1 v_ncross2 v_ncheater v_ndead v_neps v_mass     # screen and log outputs
thermo 1
thermo_modify   lost ignore

#-----------------------------------Run----------------------------------------#

# issue run command, define timesteps for physical (pairdt) and chemical (diffdt) processes
run_style nufeb diffdt 1e-4 difftol 1e-6 pairdt 1e-2 pairtol 1 pairmax 1000 diffmax 5000

timestep 12000                                               # define biological timesteps (1000s)

run 300                                                    # growing biofilm for 900x1000s
Generated 0 of 6 mixed pair_coeff terms from geometric mixing rule
Last active /omp style is pair_style gran/hooke/history/omp
Neighbor list info ...
  update every 1 steps, delay 10 steps, check yes
  max neighbors/atom: 2000, page size: 100000
  master list distance cutoff = 2.49e-06
  ghost atom cutoff = 2.49e-06
  binsize = 1.245e-06, bins = 49 49 49
  1 neighbor lists, perpetual/occasional/extra = 1 0 0
  (1) pair gran/hooke/history/omp, perpetual
      attributes: half, newton off, size, history, omp
      pair build: half/size/bin/newtoff/omp
      stencil: full/bin/3d
      bin: standard
Per MPI rank memory allocation (min/avg/max) = 11.02 | 11.02 | 11.02 Mbytes
   Step          CPU          Atoms      v_ncross1      v_ncross2      v_ncheater      v_ndead         v_neps         v_mass    
         0   0                    150   50             50             50             0              0              1.3295396e-13
         1   0.3856375            491   90             85             83             0              233            1.6441124e-13
         2   0.76438704           906   121            126            123            0              536            1.8161667e-13
         3   1.0517289           1232   129            141            136            0              826            1.9585567e-13
         4   1.3362942           1556   138            148            145            0              1125           2.089939e-13 
         5   1.5597616           1885   142            153            154            0              1436           2.2174721e-13
         6   1.7072627           2205   147            163            160            0              1735           2.3396289e-13
         7   1.8165873           2569   158            174            167            0              2070           2.4606337e-13
         8   1.9572026           2921   166            182            175            0              2398           2.5787408e-13
         9   2.0745868           3306   172            201            176            0              2757           2.6942504e-13
        10   11.802352           3705   178            210            183            0              3134           2.8077824e-13
        11   11.936812           4099   182            218            191            0              3508           2.9184399e-13
        12   12.039914           4484   184            226            197            0              3877           3.02601e-13  
        13   12.151612           4871   191            229            203            0              4248           3.1314383e-13
        14   12.247194           5287   206            233            209            0              4639           3.2350836e-13
        15   12.334295           5702   209            239            217            0              5037           3.3375897e-13
        16   12.410116           6101   214            243            225            0              5419           3.4367809e-13
        17   12.502388           6519   217            247            232            0              5823           3.5358987e-13
        18   12.579336           6914   220            250            238            0              6206           3.6312947e-13
        19   12.653539           7327   231            253            244            0              6599           3.7243442e-13
        20   12.76336            7732   233            257            250            0              6992           3.8167726e-13
        21   12.887398           8147   234            264            256            0              7393           3.9078961e-13
        22   12.990493           8567   242            271            263            0              7791           3.9962134e-13
        23   13.112996           8978   248            274            271            0              8185           4.0822457e-13
        24   13.209555           9396   253            279            280            0              8584           4.1680693e-13
        25   13.329143           9826   257            287            288            0              8994           4.2518873e-13
        26   13.464997          10231   258            289            294            0              9390           4.3338192e-13
        27   13.579308          10636   265            290            300            0              9781           4.412127e-13 
        28   13.799832          11080   270            302            304            0              10204          4.4885042e-13
        29   13.898431          11490   272            304            308            0              10606          4.5610764e-13
        30   15.444579          11908   275            314            313            0              11006          4.6322413e-13
        31   15.583692          12358   282            323            317            0              11436          4.7041866e-13
        32   15.701434          12783   286            323            321            0              11853          4.7734199e-13
        33   15.842114          13194   288            324            325            0              12257          4.8407916e-13
        34   15.979222          13617   292            327            327            0              12671          4.9069201e-13
        35   16.224506          14054   298            330            332            0              13094          4.9724789e-13
        36   16.50061           14473   299            331            339            0              13504          5.0359353e-13
        37   16.841656          14899   302            334            344            0              13919          5.0989907e-13
        38   17.547917          15327   303            336            346            0              14342          5.1606665e-13
        39   18.267622          15732   305            338            348            0              14741          5.2205804e-13
        40   39.575532          16161   310            339            354            0              15158          5.2795393e-13
        41   40.386819          16584   310            340            356            0              15578          5.3367684e-13
        42   41.248482          17015   314            340            364            0              15997          5.3935259e-13
        43   42.115671          17429   315            342            367            0              16405          5.4486352e-13
        44   42.978221          17861   320            347            370            0              16824          5.5023651e-13
        45   43.857265          18285   323            349            372            0              17241          5.5546677e-13
        46   44.765685          18714   323            351            373            0              17667          5.6070585e-13
        47   45.683263          19147   325            353            377            0              18092          5.6572551e-13
        48   46.617231          19579   330            355            382            0              18512          5.7067784e-13
        49   47.587105          20013   334            358            384            0              18937          5.7558364e-13
        50   48.638963          20447   336            363            387            0              19361          5.8028388e-13
        51   49.651341          20886   336            367            392            0              19791          5.8502012e-13
        52   50.694095          21351   337            369            399            0              20246          5.8989317e-13
        53   51.752404          21766   339            370            403            0              20654          5.9438865e-13
        54   52.836301          22217   341            372            409            0              21095          5.9905444e-13
        55   53.974336          22636   342            372            412            0              21510          6.034818e-13 
        56   55.110505          23078   343            374            416            0              21945          6.079435e-13 
        57   56.258243          23531   346            375            420            0              22390          6.1241896e-13
        58   57.437005          23959   346            381            423            0              22809          6.1668439e-13
        59   58.648103          24420   351            383            429            0              23257          6.2105619e-13
        60   60.071451          24854   353            386            432            0              23683          6.252924e-13 
        61   61.359949          25310   355            387            432            0              24136          6.294521e-13 
        62   62.653265          25745   356            389            432            0              24568          6.3329156e-13
        63   63.969945          26199   356            390            437            0              25016          6.3723132e-13
        64   65.329456          26627   358            390            442            0              25437          6.4092417e-13
        65   66.697979          27089   362            391            444            0              25892          6.4474e-13   
        66   68.100421          27541   365            393            449            0              26334          6.4836328e-13
        67   69.535197          28010   366            394            454            0              26796          6.5206838e-13
        68   70.990816          28424   367            396            457            0              27204          6.5549279e-13
        69   72.482326          28899   368            397            457            0              27677          6.5924642e-13
        70   81.629133          29333   370            398            459            0              28106          6.6265023e-13
        71   83.186741          29781   372            399            464            0              28546          6.6615105e-13
        72   84.79263           30233   374            400            464            0              28995          6.6957434e-13
        73   86.419687          30664   374            402            464            0              29424          6.7304702e-13
        74   88.091248          31115   378            402            470            0              29865          6.764299e-13 
        75   89.791935          31575   379            403            470            0              30323          6.7990021e-13
        76   91.562526          32009   381            403            472            0              30753          6.8315314e-13
        77   93.329863          32459   382            404            473            0              31200          6.8633452e-13
        78   95.147023          32914   386            407            475            0              31646          6.8940857e-13
        79   97.003447          33383   387            411            476            0              32109          6.9254743e-13
        80   99.005008          33838   388            413            478            0              32559          6.9550235e-13
        81   100.94653          34298   389            415            479            0              33015          6.9853353e-13
        82   102.93891          34762   393            418            481            0              33470          7.0167798e-13
        83   104.94672          35223   394            418            484            0              33927          7.0475544e-13
        84   107.0008           35682   395            420            487            0              34380          7.0781611e-13
        85   109.112            36140   397            421            488            0              34834          7.1093723e-13
        86   111.29608          36595   398            422            492            0              35283          7.1427256e-13
        87   113.48882          37070   399            423            497            0              35751          7.1809784e-13
        88   115.71137          37520   401            423            501            0              36195          7.2185421e-13
        89   118.05983          37986   402            423            503            0              36658          7.2580017e-13
        90   120.54377          38437   403            424            512            0              37098          7.2999797e-13
        91   122.97046          38911   404            424            523            0              37560          7.3461997e-13
        92   125.41091          39356   405            425            529            0              37997          7.3942762e-13
        93   127.91187          39832   407            426            538            0              38461          7.4453518e-13
        94   130.47993          40257   408            426            548            0              38875          7.4961306e-13
        95   133.08533          40730   410            429            559            0              39332          7.5525255e-13
        96   135.76793          41169   411            429            571            0              39758          7.6105782e-13
        97   138.45361          41629   411            430            584            0              40204          7.6739874e-13
        98   141.18399          42061   412            431            597            0              40621          7.7385044e-13
        99   143.97771          42532   414            432            615            0              41071          7.8070665e-13
       100   146.91998          42943   414            432            631            0              41466          7.8770173e-13
       101   149.81504          43414   416            435            647            0              41916          7.9509123e-13
       102   152.79295          43839   417            437            664            0              42321          8.0253242e-13
       103   155.77827          44270   418            440            676            0              42736          8.1004212e-13
       104   158.80847          44709   423            443            695            0              43148          8.1788453e-13
       105   161.85366          45136   424            444            713            0              43555          8.2584709e-13
       106   164.9386           45561   427            445            736            0              43953          8.339012e-13 
       107   168.03761          45981   430            449            769            0              44333          8.4185854e-13
       108   171.13805          46409   432            451            786            1              44739          8.4979443e-13
       109   174.29231          46844   435            455            807            1              45146          8.5786376e-13
       110   177.57884          47263   438            456            817            1              45551          8.6579719e-13
       111   180.78748          47700   442            460            835            2              45961          8.7360225e-13
       112   184.07888          48136   445            463            845            2              46381          8.8158021e-13
       113   187.38821          48568   449            464            859            3              46793          8.892892e-13 
       114   190.77404          49022   455            467            888            3              47209          8.9673544e-13
       115   194.26073          49487   458            472            911            3              47643          9.0419691e-13
       116   197.76215          49929   459            476            922            4              48068          9.1130241e-13
       117   201.3684           50376   462            480            933            6              48495          9.1809176e-13
       118   205.03793          50819   467            482            937            7              48926          9.2446338e-13
       119   208.70902          51230   469            483            946            9              49323          9.3018562e-13
       120   212.60057          51646   472            484            953            13             49724          9.3560262e-13
       121   216.32533          52122   477            486            956            17             50186          9.4045741e-13
       122   220.11308          52592   482            487            961            20             50642          9.448556e-13 
       123   223.92585          53072   487            490            963            22             51110          9.4870448e-13
       124   227.79663          53534   493            494            967            23             51557          9.5214251e-13
       125   231.64888          54059   499            494            966            27             52073          9.5545231e-13
       126   235.69357          54575   502            498            969            29             52577          9.5842638e-13
       127   239.69727          55075   506            498            970            33             53068          9.607272e-13 
       128   243.71099          55619   506            498            964            40             53611          9.6290462e-13
       129   247.81484          56164   508            499            962            42             54153          9.6498024e-13
       130   252.06335          56703   510            499            960            44             54690          9.6676364e-13
       131   256.31798          57263   514            501            957            48             55243          9.6852499e-13
       132   260.66937          57823   515            502            954            51             55801          9.7020697e-13
       133   265.0411           58398   517            502            951            54             56374          9.7151309e-13
       134   269.43469          58973   519            503            946            59             56946          9.7269852e-13
       135   273.94407          59551   520            503            942            63             57523          9.7391826e-13
       136   278.47621          60149   521            503            939            67             58119          9.7512405e-13
       137   283.12576          60723   521            503            936            71             58692          9.7614142e-13
       138   287.83475          61318   521            504            932            75             59286          9.7734537e-13
       139   292.61059          61916   523            505            928            79             59881          9.7843619e-13
       140   297.60105          62490   524            506            926            81             60453          9.7963129e-13
       141   302.53672          63078   525            506            926            81             61040          9.8082777e-13
       142   307.57322          63670   525            507            924            83             61631          9.8202433e-13
       143   312.6826           64254   527            507            920            87             62213          9.8321722e-13
       144   317.86291          64839   529            507            916            91             62796          9.8441485e-13
       145   323.11326          65448   529            508            915            92             63404          9.857619e-13 
       146   328.46798          66014   529            508            911            96             63970          9.8690239e-13
       147   333.9039           66610   530            508            909            99             64564          9.8817554e-13
       148   339.41722          67205   530            509            906            103            65157          9.8959566e-13
       149   344.99452          67750   530            510            906            103            65701          9.9075953e-13
       150   350.83735          68367   532            510            906            104            66315          9.9225296e-13
       151   356.57541          68933   532            510            898            112            66881          9.935936e-13 
       152   362.3731           69510   533            511            896            115            67455          9.9496729e-13
       153   368.26925          70106   533            511            892            119            68051          9.9650077e-13
       154   374.23671          70665   533            511            890            121            68610          9.9781173e-13
       155   380.28256          71256   533            511            888            123            69201          9.9939428e-13
       156   386.40802          71829   534            511            888            123            69773          1.0008683e-12
       157   392.65111          72413   539            511            886            125            70352          1.002388e-12 
       158   398.93591          73007   540            511            887            125            70944          1.003999e-12 
       159   405.29231          73560   540            513            884            128            71495          1.0054231e-12
       160   411.93227          74164   542            514            884            129            72095          1.0071107e-12
       161   418.48425          74731   542            515            881            132            72661          1.0086454e-12
       162   425.11828          75321   543            515            880            133            73250          1.0102533e-12
       163   431.79613          75906   544            515            880            133            73834          1.011792e-12 
       164   438.56547          76480   544            516            876            138            74406          1.0133479e-12
       165   445.43645          77067   545            518            876            138            74990          1.0148725e-12
       166   452.39437          77648   545            519            874            140            75570          1.0165401e-12
       167   459.40841          78237   547            520            871            143            76156          1.0182274e-12
       168   466.51575          78815   547            520            869            145            76734          1.0199167e-12
       169   473.68979          79409   548            521            869            146            77325          1.0216125e-12
       170   481.12368          79970   549            524            869            146            77882          1.0231803e-12
       171   488.44598          80591   549            526            866            149            78501          1.02499e-12  
       172   495.86769          81155   550            526            865            150            79064          1.0265513e-12
       173   503.37938          81768   550            527            864            151            79676          1.0283281e-12
       174   510.93925          82314   551            527            856            159            80221          1.0298645e-12
       175   518.58991          82932   551            528            852            163            80838          1.0316868e-12
       176   526.34538          83518   551            528            850            165            81424          1.0334163e-12
       177   534.18098          84116   552            529            846            169            82020          1.0351807e-12
       178   542.07365          84692   553            529            841            174            82595          1.0368979e-12
       179   550.07467          85290   553            529            840            175            83193          1.0386893e-12
       180   558.34924          85874   554            530            839            176            83775          1.0404958e-12
       181   566.50419          86471   554            530            837            179            84371          1.042249e-12 
       182   574.71157          87052   554            530            838            179            84951          1.0440815e-12
       183   583.00405          87639   554            530            835            182            85538          1.0458514e-12
       184   591.35869          88223   554            531            834            183            86121          1.04776e-12  
       185   599.8018           88810   555            532            830            187            86706          1.0495506e-12
       186   608.32414          89397   556            532            830            188            87291          1.0514795e-12
       187   616.96712          90005   557            533            829            189            87897          1.053359e-12 
       188   625.66029          90567   557            533            828            190            88459          1.0551817e-12
       189   634.42743          91175   557            535            825            194            89064          1.0571483e-12
       190   643.59759          91738   558            536            823            196            89625          1.0589908e-12
       191   652.51297          92351   561            537            821            198            90234          1.0609695e-12
       192   661.51843          92918   561            537            818            201            90801          1.0628353e-12
       193   670.60709          93526   562            539            817            202            91406          1.0648138e-12
       194   679.7769           94123   564            540            816            203            92000          1.0667749e-12
       195   689.07764          94718   565            540            811            208            92594          1.0687345e-12
       196   698.47785          95311   566            541            810            209            93185          1.0706647e-12
       197   707.97526          95899   568            541            810            210            93770          1.0726378e-12
       198   717.53506          96518   568            543            809            211            94387          1.0747474e-12
       199   727.19325          97103   568            544            810            211            94970          1.0766854e-12
       200   737.16759          97719   569            544            806            217            95583          1.0788141e-12
       201   746.95949          98295   569            544            805            218            96159          1.0807339e-12
       202   756.85568          98911   569            544            804            219            96775          1.0828741e-12
       203   766.82591          99508   569            545            800            223            97371          1.0848989e-12
       204   776.86597         100094   569            546            797            226            97956          1.0869327e-12
       205   787.05141         100700   570            546            795            228            98561          1.0889566e-12
       206   797.33055         101316   570            547            791            232            99176          1.0911353e-12
       207   807.64751         101911   571            548            789            234            99769          1.093112e-12 
       208   818.04178         102535   572            550            790            234            100389         1.0952611e-12
       209   828.536           103121   573            551            789            235            100973         1.0972494e-12
       210   839.35772         103733   573            551            788            236            101585         1.0994367e-12
       211   850.05301         104338   573            551            786            238            102190         1.1015091e-12
       212   860.80679         104935   573            552            782            243            102785         1.1035833e-12
       213   871.67525         105552   573            552            781            244            103402         1.105749e-12 
       214   882.66122         106129   573            552            779            246            103979         1.1077391e-12
       215   893.72846         106766   573            552            779            246            104616         1.1099989e-12
       216   904.91451         107346   573            552            777            249            105195         1.1120359e-12
       217   916.18096         107978   573            552            775            251            105827         1.114324e-12 
       218   927.54152         108562   573            553            774            252            106410         1.1164504e-12
       219   938.99668         109170   574            555            773            253            107015         1.1187442e-12
       220   950.8004          109776   575            555            774            254            107618         1.1209794e-12
       221   962.44162         110377   575            555            772            256            108219         1.1231891e-12
       222   974.19045         110965   575            555            769            259            108807         1.125411e-12 
       223   986.02438         111572   574            555            768            263            109412         1.1278319e-12
       224   997.95228         112174   574            555            768            264            110013         1.130382e-12 
       225   1009.9659         112764   574            555            764            269            110602         1.1329713e-12
       226   1022.0634         113400   574            555            764            271            111236         1.1357987e-12
       227   1034.2488         113977   574            555            765            273            111810         1.1383371e-12
       228   1046.5335         114599   575            556            762            277            112429         1.1411503e-12
       229   1058.908          115172   575            557            763            277            113000         1.1439224e-12
       230   1071.6464         115801   575            558            763            281            113624         1.1469924e-12
       231   1084.2349         116395   575            558            760            287            114215         1.149917e-12 
       232   1096.9357         116991   575            558            757            293            114808         1.153054e-12 
       233   1109.7951         117610   574            558            756            300            115422         1.1564571e-12
       234   1122.7414         118192   574            559            753            305            116001         1.1598724e-12
       235   1135.7767         118796   575            560            750            311            116600         1.163382e-12 
       236   1148.9148         119381   575            561            754            311            117180         1.1668237e-12
       237   1162.1798         119990   575            564            756            316            117779         1.1704174e-12
       238   1175.4861         120573   575            564            760            320            118354         1.174113e-12 
       239   1188.9246         121175   575            568            759            326            118947         1.1780415e-12
       240   1202.7374         121747   575            569            762            330            119511         1.1824373e-12
       241   1216.3783         122356   575            571            769            334            120107         1.1873457e-12
       242   1230.1436         122935   575            572            769            344            120675         1.1924848e-12
       243   1243.9546         123537   576            575            777            348            121261         1.1978957e-12
       244   1257.8829         124091   576            579            779            354            121803         1.2034642e-12
       245   1271.9536         124717   576            581            784            361            122415         1.2097553e-12
       246   1286.0487         125263   577            582            791            369            122944         1.2162412e-12
       247   1300.241          125861   580            586            801            377            123517         1.2228939e-12
       248   1314.5113         126408   580            588            810            383            124047         1.2295254e-12
       249   1328.9378         126991   581            589            819            388            124614         1.2365806e-12
       250   1343.7155         127524   584            593            822            397            125128         1.2432682e-12
       251   1358.3025         128065   589            600            831            402            125643         1.2496262e-12
       252   1373.0896         128588   595            607            834            411            126141         1.2558673e-12
       253   1387.8969         129088   600            610            834            418            126626         1.2612216e-12
       254   1402.7631         129600   601            615            833            426            127125         1.2659547e-12
       255   1417.6184         130114   608            620            830            432            127624         1.2699859e-12
       256   1432.604          130692   613            626            827            440            128186         1.2739281e-12
       257   1447.6598         131247   617            627            822            448            128733         1.2774151e-12
       258   1462.8171         131846   617            630            813            460            129326         1.2809553e-12
       259   1478.0208         132451   620            631            808            470            129922         1.2841041e-12
       260   1493.5952         133128   623            632            809            473            130591         1.2872168e-12
       261   1508.9472         133753   621            633            799            488            131212         1.2899497e-12
       262   1524.453          134414   620            633            792            496            131873         1.2927124e-12
       263   1540.0389         135088   619            635            789            503            132542         1.2953773e-12
       264   1555.7311         135802   620            636            781            513            133252         1.298138e-12 
       265   1571.5485         136466   621            636            777            518            133914         1.3006842e-12
       266   1587.4931         137197   619            635            767            533            134643         1.3034561e-12
       267   1603.5357         137887   619            634            764            537            135333         1.3060736e-12
       268   1619.7195         138582   619            635            759            543            136026         1.3087544e-12
       269   1636.0023         139299   619            636            751            551            136742         1.3114691e-12
       270   1652.6714         140020   620            636            745            558            137461         1.3142755e-12
       271   1669.1311         140723   621            636            738            567            138161         1.3169945e-12
       272   1685.7323         141439   622            636            736            569            138876         1.3197666e-12
       273   1702.4478         142138   623            636            733            572            139574         1.3224965e-12
       274   1719.2766         142846   623            637            730            575            140281         1.3252787e-12
       275   1736.1918         143557   623            637            724            582            140991         1.328026e-12 
       276   1753.26           144248   623            637            720            587            141681         1.3307457e-12
       277   1770.4069         144974   625            639            719            588            142403         1.3335784e-12
       278   1787.6571         145644   624            639            717            593            143071         1.3362198e-12
       279   1805.0152         146370   624            639            716            594            143797         1.3390843e-12
       280   1822.8            147077   624            639            713            598            144503         1.3418679e-12
       281   1840.3882         147763   624            640            712            599            145188         1.3445641e-12
       282   1858.1377         148475   623            640            707            605            145900         1.3474202e-12
       283   1875.9381         149157   623            641            705            607            146581         1.3501038e-12
       284   1893.8739         149874   624            641            704            608            147297         1.352933e-12 
       285   1911.9803         150549   624            641            702            611            147971         1.3555916e-12
       286   1930.1818         151250   624            641            700            613            148672         1.3583482e-12
       287   1948.5077         151951   624            641            697            616            149373         1.3611069e-12
       288   1966.9682         152638   624            641            695            618            150060         1.363794e-12 
       289   1985.5746         153348   625            642            693            622            150766         1.3665939e-12
       290   2004.6459         154036   624            642            691            625            151454         1.3692505e-12
       291   2023.432          154738   624            642            687            629            152156         1.3720398e-12
       292   2042.4137         155444   624            642            684            633            152861         1.3747606e-12
       293   2061.4409         156128   624            642            683            634            153545         1.3775328e-12
       294   2080.5731         156802   626            642            683            636            154215         1.3801577e-12
       295   2099.8369         157517   626            644            682            637            154928         1.3829997e-12
       296   2119.2071         158199   626            646            681            638            155608         1.3856584e-12
       297   2138.7146         158900   626            646            679            640            156309         1.3884328e-12
       298   2158.3357         159602   626            646            676            643            157011         1.3912029e-12
       299   2178.1111         160274   625            646            674            646            157683         1.3938763e-12
       300   2198.4198         160984   626            646            675            646            158391         1.3967172e-12
Loop time of 2198.42 on 16 procs for 300 steps with 160984 atoms

97.4% CPU use with 16 MPI tasks x 1 OpenMP threads

MPI task timing breakdown:
Section |  min time  |  avg time  |  max time  |%varavg| %total
---------------------------------------------------------------
Pair    | 644.79     | 721.37     | 768.84     | 115.9 | 32.81
Neigh   | 676.63     | 733.99     | 780.93     | 103.1 | 33.39
Comm    | 195.4      | 200.8      | 204.65     |  18.5 |  9.13
Output  | 44.564     | 44.564     | 44.565     |   0.0 |  2.03
Modify  | 410.95     | 490.54     | 623.17     | 249.7 | 22.31
Other   |            | 7.165      |            |       |  0.33

Nlocal:        10061.5 ave       10407 max        9648 min
Histogram: 1 0 2 2 2 2 3 1 1 2
Nghost:        7732.75 ave        8114 max        7378 min
Histogram: 2 0 0 3 3 4 2 1 0 1
Neighs:         122616 ave      129370 max      114406 min
Histogram: 1 0 2 2 2 2 4 0 0 3

Total # of neighbors = 1961860
Ave neighs/atom = 12.186677
Neighbor list builds = 26465
Dangerous builds = 26165

Total wall time: 0:37:09
