LAMMPS (23 Jun 2022 - Update 4)
  using 1 OpenMP thread(s) per MPI task
package omp 0
using multi-threaded neighbor list subroutines
#-----------------------------------------------------------------------------#
#                NUFEB Simulation: Heterotrophic Biofilm Growth               #
#-----------------------------------------------------------------------------#


#-----------------------------System Settings---------------------------------#

units si                                    # using si units (m, s, kg)
atom_style      coccus                      # using nufeb coccus atom style
atom_modify     map array sort 10 0         # map array - find atoms using indices
		                            # sort every 10

boundary        pp pp ff                    # periodic boundaries in x and y
                                            # fixed boundary in z

newton          off                         # forces between local and ghost
                                            # atoms are computed in each
					     # processor without communication

processors      * * 1                       # processor grid

comm_modify     vel yes                     # communicate velocities for ghost atoms

read_data       atom_ch.in	             # read atom.in file which defines domain size
Reading data file ...
  orthogonal box = (0 0 0) to (6e-05 6e-05 6e-05)
  4 by 4 by 1 MPI processor grid
  reading atoms ...
  150 atoms
  read_data CPU = 0.014 seconds
                                            # and initial atoms


#--------------------Microbes and Functional Groups-------------------------#

group           CROSS1   type 1               # assign type 1,2 atoms to CROSS group
50 atoms in group CROSS1
group           CROSS2   type 2
50 atoms in group CROSS2
group		CHEATER  type 3
50 atoms in group CHEATER
group           dead     type 4
0 atoms in group dead
group		EPS	 type 5
0 atoms in group EPS

neighbor        5e-7 bin                   # setting neighbour skin distance and style

neigh_modify    check yes                  # rebuild neighbour list if any atom
                                           # had moved more than half the skin distance


#--------------------------Mesh Grid and Substrates--------------------------#

# defining grid sytle, substrate names, and grid size
grid_style      nufeb/chemostat 3 sub metab1 metab2 5e-6

# set diffusion boundary conditions and initial concentrations (liquid:kg/m3)
grid_modify     set sub      pp pp nd  1.8e-4
No /omp style for force computation currently active
grid_modify     set metab1   pp pp nd  1e-4
No /omp style for force computation currently active
grid_modify     set metab2   pp pp nd  1e-4
No /omp style for force computation currently active


#--------------------------Biological Processes-------------------------------#

# heterotrophs growth
fix growth_cross1 CROSS1 nufeb/growth/cross1 sub 3.5e-5 metab2 4e-3 metab1 growth 0.009 yield 0.6 decay 2.6e-6 metab1_exp 20 epsyield 0.12 epsdens 30

fix growth_cross2 CROSS2 nufeb/growth/cross2 sub 3.5e-5 metab1 4e-3 metab2 growth 0.009 yield 0.6 decay 2.6e-6 metab2_exp 20 epsyield 0.12 epsdens 30

fix growth_cheater CHEATER nufeb/growth/cheater sub 3.5e-5 metab1 1e-3 metab2 1e-3 growth 0.009 yield 0.6 decay 2.6e-6 epsyield 0.12 epsdens 30

# heterotrophs division, division diameter: 1.36e-6
fix div1 CROSS1 nufeb/division/coccus 1.36e-6 299
fix div2 CROSS2 nufeb/division/coccus 1.36e-6 890
fix div3 CHEATER nufeb/division/coccus 1.36e-6 1873

fix death1 CROSS1 nufeb/death/diameter dead 5.43e-7
fix death2 CROSS2 nufeb/death/diameter dead 5.43e-7
fix death3 CHEATER nufeb/death/diameter dead 5.43e-7

# EPS secretion from heterotrophs
fix eps1 CROSS1 nufeb/eps_secretion 5 EPS 1.1 30 3248
fix eps2 CROSS2 nufeb/eps_secretion 5 EPS 1.1 30 5015
fix eps3 CROSS2 nufeb/eps_secretion 5 EPS 1.1 30 7174
#---------------------------Physical Processes--------------------------------#

pair_style  gran/hooke/history 1e-4 NULL 1e-5 NULL 0.0 0    # pairwise interaction
pair_coeff  * *                                             # between atoms

# pairwise interaction between z-wall and atoms
fix wall all wall/gran hooke/history 1e-3 NULL 1e-4 NULL 0 0 zplane 0.0 1e-04

fix vis all viscous 1e-5                                    # viscous damping force

fix grav all gravity 9.81 vector 0.0 0.0 -1.0

fix nve all nve/limit 1e-7                                  # NVE integration with
                                                            # maximum distance limit


#---------------------------Post-Physical Processes---------------------------#

fix coeff_sub all nufeb/diffusion_coeff sub ratio 0.8       # defining diffusion coeff in the biofilm
fix coeff_metab1 all nufeb/diffusion_coeff metab1 ratio 0.8    # region is 80% of the value in liquid
fix coeff_metab2 all nufeb/diffusion_coeff metab2 ratio 0.8

#---------------------------Chemical Processes---------------------------------#

fix diff_sub all nufeb/diffusion_reaction sub 1e-9        # diffusion reaction for updating
fix diff_metab1 all nufeb/diffusion_reaction metab1 4e-9     # distribusion of substrate concentration
fix diff_metab2 all nufeb/diffusion_reaction metab2 4e-9

#--------------------------Computations and Outputs----------------------------#

variable mass equal "mass(all)"                             # total mass
variable ncross1 equal "count(CROSS1)"                      # total # of CROSS1
variable ncross2 equal "count(CROSS2)"                      # total # of CROSS2
variable ncheater equal "count(CHEATER)"
variable ndead equal "count(dead)"
variable neps equal "count(EPS)"

shell mkdir vtk_CHEPS_ch                                            # dump vtk files to /vtk folder
dump du1 all vtk 10 vtk_CHEPS_ch/dump*.vtu id type diameter         # require build NUFEB with vtk option
dump du2 all grid/vtk 10 vtk_CHEPS_ch/dump_%_*.vti con rea den gro

#dump du3 all movie 10 movie.avi type diameter view 80 60    # dump video
#dump_modify du3 acolor 1 blue acolor 2 lightgrey framerate 10


                                                            # dump hdf5 files to /hdf5 folder
#shell mkdir hdf5                                           # require build NUFEB with hdf5 option
#dump du3 all nufeb/hdf5 10 dump.h5 id type x y z vx vy vz fx fy fz radius conc reac

thermo_style custom step cpu atoms v_ncross1 v_ncross2 v_ncheater v_ndead v_neps v_mass     # screen and log outputs
thermo 1
thermo_modify   lost ignore

#-----------------------------------Run----------------------------------------#

# issue run command, define timesteps for physical (pairdt) and chemical (diffdt) processes
run_style nufeb diffdt 1e-4 difftol 1e-6 pairdt 1e-2 pairtol 1 pairmax 1000 diffmax 5000

timestep 12000                                               # define biological timesteps (1000s)

run 300                                                    # growing biofilm for 900x1000s
Generated 0 of 6 mixed pair_coeff terms from geometric mixing rule
Last active /omp style is pair_style gran/hooke/history/omp
Neighbor list info ...
  update every 1 steps, delay 10 steps, check yes
  max neighbors/atom: 2000, page size: 100000
  master list distance cutoff = 2.49e-06
  ghost atom cutoff = 2.49e-06
  binsize = 1.245e-06, bins = 49 49 49
  1 neighbor lists, perpetual/occasional/extra = 1 0 0
  (1) pair gran/hooke/history/omp, perpetual
      attributes: half, newton off, size, history, omp
      pair build: half/size/bin/newtoff/omp
      stencil: full/bin/3d
      bin: standard
Per MPI rank memory allocation (min/avg/max) = 11.02 | 11.02 | 11.02 Mbytes
   Step          CPU          Atoms      v_ncross1      v_ncross2      v_ncheater      v_ndead         v_neps         v_mass    
         0   0                    150   50             50             50             0              0              1.3295396e-13
         1   0.39396882           490   90             85             83             0              232            1.6428605e-13
         2   0.7761547            897   120            125            124            0              528            1.8152777e-13
         3   1.0647247           1236   131            144            140            0              821            1.9569264e-13
         4   1.3511782           1571   139            153            146            0              1133           2.0884231e-13
         5   1.5532801           1919   142            162            152            0              1463           2.2153152e-13
         6   1.7262902           2260   149            170            158            0              1783           2.3372791e-13
         7   1.841676            2622   156            181            167            0              2118           2.4560075e-13
         8   1.9565198           2995   174            187            172            0              2462           2.5712431e-13
         9   2.0888359           3373   178            198            176            0              2821           2.6841659e-13
        10   2.2120373           3753   180            209            182            0              3182           2.7943831e-13
        11   2.3212978           4143   182            218            189            0              3554           2.9025237e-13
        12   2.428121            4527   188            223            196            0              3920           3.00785e-13  
        13   2.519495            4926   193            230            202            0              4301           3.1114451e-13
        14   2.6052551           5298   198            232            205            0              4663           3.2124117e-13
        15   2.7109127           5695   203            238            211            0              5043           3.3116929e-13
        16   2.8433714           6090   207            246            214            0              5423           3.4084614e-13
        17   2.9292987           6495   215            252            222            0              5806           3.5029125e-13
        18   3.0140722           6890   215            258            229            0              6188           3.5952978e-13
        19   3.0813977           7308   222            262            238            0              6586           3.6856403e-13
        20   3.1871369           7712   227            269            242            0              6974           3.7730348e-13
        21   3.2738069           8135   229            275            246            0              7385           3.8602729e-13
        22   3.3936091           8566   237            281            254            0              7794           3.9455139e-13
        23   3.5159353           8985   244            286            261            0              8194           4.028332e-13 
        24   3.6249081           9410   252            290            265            0              8603           4.1098679e-13
        25   3.7005503           9831   258            291            268            0              9014           4.1900575e-13
        26   3.8102946          10247   263            296            269            0              9419           4.2681362e-13
        27   3.8994229          10654   263            299            276            0              9816           4.3442549e-13
        28   3.9894263          11092   270            304            282            0              10236          4.4190068e-13
        29   4.0823343          11527   274            308            287            0              10658          4.4927232e-13
        30   4.2439996          11947   278            312            293            0              11064          4.5648359e-13
        31   4.3412934          12372   279            315            296            0              11482          4.6354592e-13
        32   4.4630179          12792   284            317            299            0              11892          4.7046416e-13
        33   4.640945           13225   288            321            301            0              12315          4.7738254e-13
        34   4.7553871          13636   290            322            306            0              12718          4.8390991e-13
        35   4.9944421          14075   295            324            313            0              13143          4.9039562e-13
        36   5.223129           14493   298            327            315            0              13553          4.9672104e-13
        37   5.7606707          14903   300            330            317            0              13956          5.0295241e-13
        38   6.2074031          15330   301            332            321            0              14376          5.0921788e-13
        39   6.9060925          15759   304            334            330            0              14791          5.1532573e-13
        40   7.8190603          16173   305            337            334            0              15197          5.2125951e-13
        41   8.6872555          16607   309            341            337            0              15620          5.272178e-13 
        42   9.5572833          17039   318            344            344            0              16033          5.3299247e-13
        43   10.447937          17482   319            346            347            0              16470          5.3879731e-13
        44   11.386845          17900   325            348            351            0              16876          5.4437399e-13
        45   12.313043          18333   327            354            358            0              17294          5.4987544e-13
        46   13.251309          18784   332            356            364            0              17732          5.5533638e-13
        47   14.209444          19209   333            359            366            0              18151          5.6058956e-13
        48   15.210718          19639   333            362            369            0              18575          5.6584523e-13
        49   16.217003          20083   336            363            376            0              19008          5.7087469e-13
        50   56.79971           20517   339            365            378            0              19435          5.7584459e-13
        51   57.84584           20947   342            365            382            0              19858          5.8071693e-13
        52   58.935037          21393   344            366            384            0              20299          5.8569599e-13
        53   60.025128          21800   346            367            385            0              20702          5.9033333e-13
        54   61.151331          22249   351            369            387            0              21142          5.9499954e-13
        55   62.323819          22693   353            370            391            0              21579          5.9961948e-13
        56   63.490006          23121   355            373            395            0              21998          6.0403171e-13
        57   64.687548          23551   356            374            398            0              22423          6.0848643e-13
        58   65.920855          24012   358            376            402            0              22876          6.1286992e-13
        59   67.169376          24436   360            376            407            0              23293          6.1708203e-13
        60   80.531039          24874   361            378            408            0              23727          6.2139326e-13
        61   81.825246          25317   366            379            412            0              24160          6.2546534e-13
        62   83.145746          25777   369            381            414            0              24613          6.2955039e-13
        63   84.493962          26211   373            382            415            0              25041          6.3345609e-13
        64   85.852281          26660   374            382            417            0              25487          6.3737934e-13
        65   87.247991          27109   377            383            421            0              25928          6.4123686e-13
        66   88.663965          27554   380            383            425            0              26366          6.4497628e-13
        67   90.106087          28007   381            384            426            0              26816          6.4882865e-13
        68   91.578656          28442   381            385            429            0              27247          6.5255912e-13
        69   93.088098          28890   382            387            431            0              27690          6.5630824e-13
        70   101.46002          29343   382            389            438            0              28134          6.5998978e-13
        71   103.03561          29801   385            390            442            0              28584          6.6362781e-13
        72   104.64117          30238   386            392            445            0              29015          6.6715418e-13
        73   106.26844          30686   389            392            449            0              29456          6.7069159e-13
        74   107.94947          31150   389            392            451            0              29918          6.743243e-13 
        75   109.6687           31584   391            393            455            0              30345          6.7754959e-13
        76   111.41245          32052   392            395            459            0              30806          6.8090973e-13
        77   113.19379          32497   394            397            462            0              31244          6.8401317e-13
        78   115.02342          32955   394            398            465            0              31698          6.8732633e-13
        79   116.859            33410   398            398            467            0              32147          6.9058377e-13
        80   118.83318          33875   400            399            470            0              32606          6.9391759e-13
        81   120.76617          34320   402            401            473            0              33044          6.9699192e-13
        82   122.77132          34787   402            401            477            0              33507          7.0029403e-13
        83   124.79865          35211   403            403            477            0              33928          7.0347346e-13
        84   126.8828           35716   406            406            482            0              34422          7.0712321e-13
        85   128.98902          36156   408            407            484            0              34857          7.1062144e-13
        86   131.15382          36630   409            407            488            0              35326          7.143517e-13 
        87   133.46517          37060   410            407            491            0              35752          7.1797984e-13
        88   135.78802          37553   410            408            497            0              36238          7.220816e-13 
        89   138.05696          37971   412            410            503            0              36646          7.2583949e-13
        90   140.55041          38466   412            413            510            0              37131          7.2986322e-13
        91   142.95142          38898   413            414            514            0              37557          7.3388649e-13
        92   145.42827          39361   413            418            519            0              38011          7.3822318e-13
        93   147.95485          39809   413            419            525            0              38452          7.4269376e-13
        94   150.66005          40260   413            421            532            0              38894          7.4726043e-13
        95   153.41294          40727   419            423            546            0              39339          7.5247305e-13
        96   156.17193          41148   421            427            558            0              39742          7.5765435e-13
        97   158.98282          41602   424            427            563            0              40188          7.6328867e-13
        98   161.75624          42029   425            430            573            0              40601          7.6910655e-13
        99   164.63579          42467   429            432            586            0              41020          7.7496176e-13
       100   167.70154          42920   431            436            600            0              41453          7.8112885e-13
       101   170.73181          43342   434            439            615            1              41853          7.8718438e-13
       102   173.69251          43765   440            442            628            1              42254          7.9349096e-13
       103   176.75473          44208   445            445            641            1              42676          7.9994384e-13
       104   179.82186          44654   448            448            657            1              43100          8.0666099e-13
       105   182.95175          45070   449            450            667            2              43502          8.133554e-13 
       106   186.14549          45517   450            454            683            2              43928          8.2017426e-13
       107   189.42323          45982   454            458            703            2              44365          8.2733654e-13
       108   192.70499          46423   459            459            724            2              44779          8.3445894e-13
       109   196.04631          46885   461            464            742            2              45216          8.4183351e-13
       110   199.56395          47330   465            467            754            3              45641          8.4889671e-13
       111   203.06267          47783   472            468            764            4              46075          8.5586019e-13
       112   206.65779          48252   478            469            780            4              46521          8.6245101e-13
       113   210.30489          48693   483            471            791            4              46944          8.6904354e-13
       114   213.9921           49153   487            473            800            5              47388          8.7536435e-13
       115   217.71167          49609   489            478            811            6              47825          8.8156636e-13
       116   221.5734           50081   493            485            819            6              48278          8.8750714e-13
       117   225.52931          50531   499            487            825            10             48710          8.9330725e-13
       118   229.52705          50981   503            489            835            10             49144          8.9857941e-13
       119   233.47881          51433   504            493            844            10             49582          9.03276e-13  
       120   237.71747          51896   505            495            848            14             50034          9.0792588e-13
       121   241.88676          52388   510            499            855            16             50508          9.1227835e-13
       122   246.14612          52884   513            501            857            21             50992          9.1625327e-13
       123   250.52284          53387   519            503            860            24             51481          9.1993543e-13
       124   254.88357          53885   524            503            859            30             51969          9.2307754e-13
       125   259.37029          54425   525            503            857            33             52507          9.2633385e-13
       126   263.92176          54941   526            506            855            35             53019          9.291378e-13 
       127   268.53626          55498   529            506            852            41             53570          9.3181468e-13
       128   273.2046           56055   529            506            849            48             54123          9.3418794e-13
       129   277.95364          56619   531            509            848            51             54680          9.363913e-13 
       130   282.95718          57215   532            509            848            52             55274          9.3858596e-13
       131   287.95679          57814   535            509            849            53             55868          9.4060054e-13
       132   293.04123          58393   536            509            847            55             56446          9.4255482e-13
       133   298.19559          58997   536            511            842            60             57048          9.4446314e-13
       134   303.46492          59587   536            512            836            66             57637          9.4632965e-13
       135   308.81802          60188   536            512            834            69             58237          9.48286e-13  
       136   314.29869          60780   537            514            832            71             58826          9.5016115e-13
       137   319.89698          61383   539            516            830            73             59425          9.5203919e-13
       138   325.59293          61975   539            516            828            75             60017          9.5384062e-13
       139   331.39973          62575   539            517            824            79             60616          9.557117e-13 
       140   337.48078          63167   539            517            821            82             61208          9.5754665e-13
       141   343.51395          63744   539            517            818            85             61785          9.5928309e-13
       142   349.59153          64344   542            518            816            87             62381          9.612257e-13 
       143   355.79054          64961   543            520            815            89             62994          9.6313043e-13
       144   362.11508          65541   546            520            813            93             63569          9.6487569e-13
       145   368.56754          66156   547            521            811            95             64182          9.6686048e-13
       146   375.14587          66725   548            521            810            96             64750          9.6867294e-13
       147   381.85418          67337   549            522            808            99             65359          9.7064054e-13
       148   388.67047          67917   550            522            808            99             65938          9.7252326e-13
       149   395.59807          68529   550            522            807            100            66550          9.745691e-13 
       150   402.83819          69094   550            523            808            100            67113          9.7638604e-13
       151   410.01313          69694   551            524            803            105            67711          9.783956e-13 
       152   417.35184          70292   552            525            801            108            68306          9.8035208e-13
       153   424.78715          70874   553            525            798            111            68887          9.8221104e-13
       154   432.31772          71471   553            525            794            115            69484          9.8427376e-13
       155   439.95918          72080   554            525            791            118            70092          9.8634957e-13
       156   447.72567          72663   555            525            789            121            70673          9.88329e-13  
       157   455.60423          73256   557            527            785            125            71262          9.9034474e-13
       158   463.61918          73848   558            527            785            125            71853          9.9237263e-13
       159   471.74641          74449   559            527            782            130            72451          9.9436782e-13
       160   480.18433          75025   559            528            781            132            73025          9.9632135e-13
       161   488.56104          75625   560            528            779            134            73624          9.9839786e-13
       162   497.03932          76222   561            529            777            137            74218          1.0004825e-12
       163   505.64502          76812   561            529            776            139            74807          1.0024502e-12
       164   514.36754          77418   563            529            774            141            75411          1.0045725e-12
       165   523.16322          77998   564            529            771            145            75989          1.0064699e-12
       166   532.07398          78614   564            530            766            150            76604          1.0085881e-12
       167   541.12749          79209   565            530            762            154            77198          1.0105928e-12
       168   550.2821           79805   565            530            758            158            77794          1.0126544e-12
       169   559.54295          80395   565            534            758            158            78380          1.0146853e-12
       170   569.1268           80984   565            534            756            160            78969          1.0167548e-12
       171   578.64088          81600   565            535            756            162            79582          1.0188613e-12
       172   588.31183          82168   565            536            755            163            80149          1.0208556e-12
       173   598.05063          82800   566            536            753            167            80778          1.0230318e-12
       174   607.88785          83358   567            537            752            168            81334          1.0249368e-12
       175   617.87179          83994   567            537            750            170            81970          1.0270837e-12
       176   627.9581           84568   568            537            749            171            82543          1.0289859e-12
       177   638.18149          85165   571            537            746            174            83137          1.0309328e-12
       178   648.53581          85774   571            537            745            176            83745          1.0330465e-12
       179   658.99892          86364   571            538            746            176            84333          1.0350836e-12
       180   669.80148          86970   573            538            745            178            84936          1.0371664e-12
       181   680.50318          87583   574            539            744            179            85547          1.0393243e-12
       182   691.3191           88178   574            539            742            182            86141          1.0414514e-12
       183   702.25024          88779   575            540            742            184            86738          1.0434306e-12
       184   713.29901          89399   577            540            740            186            87356          1.0456491e-12
       185   724.46386          89988   577            542            739            187            87943          1.0477112e-12
       186   735.7533           90602   578            543            737            189            88555          1.0498881e-12
       187   747.141            91190   579            544            736            190            89141          1.0519159e-12
       188   758.66412          91813   579            544            734            192            89764          1.054116e-12 
       189   770.2181           92413   579            545            733            193            90363          1.0562477e-12
       190   782.06411          93011   579            545            730            196            90961          1.0583252e-12
       191   793.76066          93624   580            546            727            199            91572          1.0605303e-12
       192   805.55912          94245   581            546            726            200            92192          1.0626839e-12
       193   817.50316          94825   581            546            724            202            92772          1.064794e-12 
       194   829.50644          95457   582            547            722            204            93402          1.0670319e-12
       195   841.64042          96040   582            548            718            208            93984          1.0691245e-12
       196   853.95878          96673   583            549            715            211            94615          1.0714122e-12
       197   866.39059          97263   583            549            714            213            95204          1.073418e-12 
       198   878.90056          97881   584            549            712            215            95821          1.0755728e-12
       199   891.57115          98487   585            549            711            217            96425          1.0777845e-12
       200   904.59549          99102   585            550            710            218            97039          1.0800667e-12
       201   917.54156          99713   585            551            709            219            97649          1.0821627e-12
       202   930.60278         100318   585            552            711            219            98251          1.0842178e-12
       203   943.73037         100928   585            552            711            220            98860          1.0862822e-12
       204   956.97395         101555   586            552            708            223            99486          1.088369e-12 
       205   970.37719         102154   587            552            707            225            100083         1.0904237e-12
       206   983.92995         102783   587            553            706            226            100711         1.0925504e-12
       207   997.5865          103365   589            553            704            228            101291         1.094589e-12 
       208   1011.3769         104012   590            555            700            232            101935         1.0967694e-12
       209   1025.304          104606   590            556            699            233            102528         1.0987783e-12
       210   1039.5516         105248   591            556            695            237            103169         1.1009293e-12
       211   1053.5664         105841   592            556            695            237            103761         1.1029509e-12
       212   1067.7114         106478   593            556            692            240            104397         1.1050886e-12
       213   1081.959          107079   593            556            691            242            104997         1.1071909e-12
       214   1096.3641         107703   593            556            690            244            105620         1.1093083e-12
       215   1110.8243         108307   593            557            686            248            106223         1.1113931e-12
       216   1125.3916         108931   594            557            684            250            106846         1.1135102e-12
       217   1140.0504         109547   594            557            681            254            107461         1.1156815e-12
       218   1154.8444         110177   594            558            681            254            108090         1.1178234e-12
       219   1169.7784         110781   596            559            681            254            108691         1.1199117e-12
       220   1185.0988         111430   596            559            677            258            109340         1.1221754e-12
       221   1200.3494         112034   596            561            672            263            109942         1.1242891e-12
       222   1215.6471         112659   597            561            670            266            110565         1.1265049e-12
       223   1231.1285         113275   597            562            665            271            111180         1.1287129e-12
       224   1246.7205         113891   598            564            664            273            111792         1.1309201e-12
       225   1262.4117         114533   598            565            662            275            112433         1.1333012e-12
       226   1278.1457         115132   598            565            661            278            113030         1.1355858e-12
       227   1293.9964         115763   598            565            659            282            113659         1.1380534e-12
       228   1309.9947         116399   602            565            657            285            114290         1.1405941e-12
       229   1326.1019         117010   601            565            655            289            114900         1.1433778e-12
       230   1342.5673         117639   602            565            656            292            115524         1.1463467e-12
       231   1358.9546         118255   602            565            656            295            116137         1.1494282e-12
       232   1375.3971         118870   603            565            656            297            116749         1.1526006e-12
       233   1391.9903         119487   604            565            661            298            117359         1.1560779e-12
       234   1408.7651         120101   605            565            665            299            117967         1.1597231e-12
       235   1425.69           120723   607            565            669            301            118581         1.1638819e-12
       236   1442.7026         121318   608            565            673            303            119169         1.1685047e-12
       237   1459.9147         121938   609            565            678            305            119781         1.1736622e-12
       238   1477.3161         122531   609            566            693            306            120357         1.1791505e-12
       239   1494.8236         123131   612            566            699            311            120943         1.1854061e-12
       240   1512.8085         123742   612            566            716            314            121534         1.1918949e-12
       241   1530.5792         124321   612            567            725            317            122100         1.19865e-12  
       242   1548.4101         124911   614            567            740            320            122670         1.2058163e-12
       243   1566.3489         125490   615            570            756            321            123228         1.212977e-12 
       244   1584.4633         126088   616            572            777            326            123797         1.2203463e-12
       245   1602.6858         126656   618            573            791            331            124343         1.2278303e-12
       246   1621.0795         127216   621            578            797            338            124882         1.235058e-12 
       247   1639.6547         127768   624            582            797            346            125419         1.2421094e-12
       248   1658.351          128281   627            584            806            351            125913         1.2486662e-12
       249   1677.1766         128814   629            593            808            357            126427         1.2548352e-12
       250   1696.4384         129361   634            594            817            363            126953         1.260562e-12 
       251   1715.4032         129863   640            596            815            370            127442         1.2655589e-12
       252   1734.5332         130373   649            602            817            378            127927         1.2701121e-12
       253   1753.729          130912   651            607            810            389            128455         1.274326e-12 
       254   1772.9647         131499   656            610            808            397            129028         1.2782936e-12
       255   1792.3383         132098   661            612            801            408            129616         1.2819808e-12
       256   1812.0597         132706   664            615            799            413            130215         1.2854264e-12
       257   1832.0394         133376   666            620            792            422            130876         1.2886604e-12
       258   1852.2484         134017   669            621            791            425            131511         1.2916237e-12
       259   1872.6255         134692   671            621            788            429            132183         1.2944505e-12
       260   1893.3576         135349   675            619            786            435            132834         1.2971051e-12
       261   1914.0019         136084   677            619            782            440            133566         1.2998304e-12
       262   1934.7715         136802   676            619            782            442            134283         1.3024053e-12
       263   1955.7214         137539   676            620            780            444            135019         1.3050681e-12
       264   1976.8315         138244   676            618            778            453            135719         1.3075718e-12
       265   1998.1029         138979   677            618            773            458            136453         1.3101087e-12
       266   2019.4962         139699   676            618            766            467            137172         1.3127856e-12
       267   2041.0335         140438   675            618            762            473            137910         1.3154885e-12
       268   2062.7092         141173   675            618            760            475            138645         1.3181645e-12
       269   2084.4827         141886   675            618            754            481            139358         1.3206907e-12
       270   2106.4895         142616   675            618            753            482            140088         1.3233295e-12
       271   2128.3139         143347   676            619            747            488            140817         1.32594e-12  
       272   2150.2674         144061   676            619            743            492            141531         1.3284578e-12
       273   2172.4225         144787   676            620            740            495            142256         1.3310937e-12
       274   2194.7413         145503   676            620            740            496            142971         1.3337393e-12
       275   2217.181          146232   676            620            734            502            143700         1.3364139e-12
       276   2239.9511         146965   676            621            731            505            144432         1.3390536e-12
       277   2262.9201         147677   676            621            727            509            145144         1.3417058e-12
       278   2286.0501         148415   676            620            727            510            145882         1.344412e-12 
       279   2309.1577         149105   675            621            723            515            146571         1.3469757e-12
       280   2332.8041         149836   675            621            723            516            147301         1.3496888e-12
       281   2356.3181         150563   676            622            719            520            148026         1.3523333e-12
       282   2379.93           151272   674            624            712            529            148733         1.3550265e-12
       283   2403.7288         151998   674            624            710            531            149459         1.3576909e-12
       284   2427.7335         152716   675            624            710            531            150176         1.3602917e-12
       285   2451.9148         153425   675            624            706            535            150885         1.3629291e-12
       286   2476.2928         154150   673            625            706            537            151609         1.3654617e-12
       287   2500.8332         154870   673            626            705            538            152328         1.3680706e-12
       288   2525.5434         155585   673            626            705            538            153043         1.3706581e-12
       289   2550.3431         156302   674            626            705            539            153758         1.3731681e-12
       290   2575.6835         157027   675            628            705            539            154480         1.375706e-12 
       291   2600.9062         157728   675            628            703            541            155181         1.378236e-12 
       292   2626.2534         158461   675            628            703            542            155913         1.3808642e-12
       293   2651.7986         159162   674            628            701            545            156614         1.3834094e-12
       294   2677.5286         159878   674            629            699            547            157329         1.3858782e-12
       295   2703.4274         160602   674            630            699            547            158052         1.388384e-12 
       296   2729.5028         161312   674            630            698            548            158762         1.3908825e-12
       297   2755.791          162036   674            630            698            551            159483         1.3934638e-12
       298   2782.255          162750   675            631            696            553            160195         1.3958575e-12
       299   2808.8597         163468   676            632            695            554            160911         1.3984761e-12
       300   2836.0267         164170   676            632            693            556            161613         1.4010047e-12
Loop time of 2836.03 on 16 procs for 300 steps with 164170 atoms

96.4% CPU use with 16 MPI tasks x 1 OpenMP threads

MPI task timing breakdown:
Section |  min time  |  avg time  |  max time  |%varavg| %total
---------------------------------------------------------------
Pair    | 825.62     | 968.39     | 1086.6     | 225.1 | 34.15
Neigh   | 706.38     | 759.62     | 819.47     |  88.6 | 26.78
Comm    | 357.65     | 368.51     | 377.86     |  31.7 | 12.99
Output  | 64.12      | 64.121     | 64.122     |   0.0 |  2.26
Modify  | 536.95     | 664.76     | 854.09     | 323.2 | 23.44
Other   |            | 10.63      |            |       |  0.37

Nlocal:        10260.6 ave       10558 max        9935 min
Histogram: 1 0 0 3 5 2 2 0 2 1
Nghost:        7882.31 ave        8091 max        7702 min
Histogram: 1 1 3 2 2 1 3 1 1 1
Neighs:         126319 ave      133552 max      119258 min
Histogram: 1 0 1 4 2 4 1 1 1 1

Total # of neighbors = 2021109
Ave neighs/atom = 12.311074
Neighbor list builds = 26437
Dangerous builds = 26137

Total wall time: 0:47:16
