LAMMPS (23 Jun 2022 - Update 4)
  using 1 OpenMP thread(s) per MPI task
package omp 0
using multi-threaded neighbor list subroutines
#-----------------------------------------------------------------------------#
#                NUFEB Simulation: Heterotrophic Biofilm Growth               #
#-----------------------------------------------------------------------------#


#-----------------------------System Settings---------------------------------#

units si                                    # using si units (m, s, kg)
atom_style      coccus                      # using nufeb coccus atom style
atom_modify     map array sort 10 0         # map array - find atoms using indices
		                            # sort every 10

boundary        pp pp ff                    # periodic boundaries in x and y
                                            # fixed boundary in z

newton          off                         # forces between local and ghost
                                            # atoms are computed in each
					     # processor without communication

processors      * * 1                       # processor grid

comm_modify     vel yes                     # communicate velocities for ghost atoms

read_data       atom_ch.in	             # read atom.in file which defines domain size
Reading data file ...
  orthogonal box = (0 0 0) to (6e-05 6e-05 6e-05)
  4 by 4 by 1 MPI processor grid
  reading atoms ...
  150 atoms
  read_data CPU = 0.011 seconds
                                            # and initial atoms


#--------------------Microbes and Functional Groups-------------------------#

group           CROSS1   type 1               # assign type 1,2 atoms to CROSS group
50 atoms in group CROSS1
group           CROSS2   type 2
50 atoms in group CROSS2
group		CHEATER  type 3
50 atoms in group CHEATER
group           dead     type 4
0 atoms in group dead
group		EPS	 type 5
0 atoms in group EPS

neighbor        5e-7 bin                   # setting neighbour skin distance and style

neigh_modify    check yes                  # rebuild neighbour list if any atom
                                           # had moved more than half the skin distance


#--------------------------Mesh Grid and Substrates--------------------------#

# defining grid sytle, substrate names, and grid size
grid_style      nufeb/chemostat 3 sub metab1 metab2 5e-6

# set diffusion boundary conditions and initial concentrations (liquid:kg/m3)
grid_modify     set sub      pp pp nd  1.8e-4
No /omp style for force computation currently active
grid_modify     set metab1   pp pp nd  1e-4
No /omp style for force computation currently active
grid_modify     set metab2   pp pp nd  1e-4
No /omp style for force computation currently active


#--------------------------Biological Processes-------------------------------#

# heterotrophs growth
fix growth_cross1 CROSS1 nufeb/growth/cross1 sub 3.5e-5 metab2 4e-3 metab1 growth 0.009 yield 0.6 decay 2.6e-6 metab1_exp 20 epsyield 0.12 epsdens 30

fix growth_cross2 CROSS2 nufeb/growth/cross2 sub 3.5e-5 metab1 4e-3 metab2 growth 0.009 yield 0.6 decay 2.6e-6 metab2_exp 20 epsyield 0.12 epsdens 30

fix growth_cheater CHEATER nufeb/growth/cheater sub 3.5e-5 metab1 1e-3 metab2 1e-3 growth 0.009 yield 0.6 decay 2.6e-6 epsyield 0.12 epsdens 30

# heterotrophs division, division diameter: 1.36e-6
fix div1 CROSS1 nufeb/division/coccus 1.36e-6 587
fix div2 CROSS2 nufeb/division/coccus 1.36e-6 2042
fix div3 CHEATER nufeb/division/coccus 1.36e-6 4465

fix death1 CROSS1 nufeb/death/diameter dead 5.43e-7
fix death2 CROSS2 nufeb/death/diameter dead 5.43e-7
fix death3 CHEATER nufeb/death/diameter dead 5.43e-7

# EPS secretion from heterotrophs
fix eps1 CROSS1 nufeb/eps_secretion 5 EPS 1.1 30 7856
fix eps2 CROSS2 nufeb/eps_secretion 5 EPS 1.1 30 12215
fix eps3 CROSS2 nufeb/eps_secretion 5 EPS 1.1 30 17542
#---------------------------Physical Processes--------------------------------#

pair_style  gran/hooke/history 1e-4 NULL 1e-5 NULL 0.0 0    # pairwise interaction
pair_coeff  * *                                             # between atoms

# pairwise interaction between z-wall and atoms
fix wall all wall/gran hooke/history 1e-3 NULL 1e-4 NULL 0 0 zplane 0.0 1e-04

fix vis all viscous 1e-5                                    # viscous damping force

fix grav all gravity 9.81 vector 0.0 0.0 -1.0

fix nve all nve/limit 1e-7                                  # NVE integration with
                                                            # maximum distance limit


#---------------------------Post-Physical Processes---------------------------#

fix coeff_sub all nufeb/diffusion_coeff sub ratio 0.8       # defining diffusion coeff in the biofilm
fix coeff_metab1 all nufeb/diffusion_coeff metab1 ratio 0.8    # region is 80% of the value in liquid
fix coeff_metab2 all nufeb/diffusion_coeff metab2 ratio 0.8

#---------------------------Chemical Processes---------------------------------#

fix diff_sub all nufeb/diffusion_reaction sub 1e-9        # diffusion reaction for updating
fix diff_metab1 all nufeb/diffusion_reaction metab1 4e-9     # distribusion of substrate concentration
fix diff_metab2 all nufeb/diffusion_reaction metab2 4e-9

#--------------------------Computations and Outputs----------------------------#

variable mass equal "mass(all)"                             # total mass
variable ncross1 equal "count(CROSS1)"                      # total # of CROSS1
variable ncross2 equal "count(CROSS2)"                      # total # of CROSS2
variable ncheater equal "count(CHEATER)"
variable ndead equal "count(dead)"
variable neps equal "count(EPS)"

shell mkdir vtk_CHEPS_ch                                            # dump vtk files to /vtk folder
dump du1 all vtk 10 vtk_CHEPS_ch/dump*.vtu id type diameter         # require build NUFEB with vtk option
dump du2 all grid/vtk 10 vtk_CHEPS_ch/dump_%_*.vti con rea den gro

#dump du3 all movie 10 movie.avi type diameter view 80 60    # dump video
#dump_modify du3 acolor 1 blue acolor 2 lightgrey framerate 10


                                                            # dump hdf5 files to /hdf5 folder
#shell mkdir hdf5                                           # require build NUFEB with hdf5 option
#dump du3 all nufeb/hdf5 10 dump.h5 id type x y z vx vy vz fx fy fz radius conc reac

thermo_style custom step cpu atoms v_ncross1 v_ncross2 v_ncheater v_ndead v_neps v_mass     # screen and log outputs
thermo 1
thermo_modify   lost ignore

#-----------------------------------Run----------------------------------------#

# issue run command, define timesteps for physical (pairdt) and chemical (diffdt) processes
run_style nufeb diffdt 1e-4 difftol 1e-6 pairdt 1e-2 pairtol 1 pairmax 1000 diffmax 5000

timestep 12000                                               # define biological timesteps (1000s)

run 300                                                    # growing biofilm for 900x1000s
Generated 0 of 6 mixed pair_coeff terms from geometric mixing rule
Last active /omp style is pair_style gran/hooke/history/omp
Neighbor list info ...
  update every 1 steps, delay 10 steps, check yes
  max neighbors/atom: 2000, page size: 100000
  master list distance cutoff = 2.49e-06
  ghost atom cutoff = 2.49e-06
  binsize = 1.245e-06, bins = 49 49 49
  1 neighbor lists, perpetual/occasional/extra = 1 0 0
  (1) pair gran/hooke/history/omp, perpetual
      attributes: half, newton off, size, history, omp
      pair build: half/size/bin/newtoff/omp
      stencil: full/bin/3d
      bin: standard
Per MPI rank memory allocation (min/avg/max) = 11.02 | 11.02 | 11.02 Mbytes
   Step          CPU          Atoms      v_ncross1      v_ncross2      v_ncheater      v_ndead         v_neps         v_mass    
         0   0                    150   50             50             50             0              0              1.3295396e-13
         1   0.39081892           488   90             85             83             0              230            1.6439146e-13
         2   0.76026243           911   121            126            125            0              539            1.8165331e-13
         3   1.0527367           1257   132            140            142            0              843            1.9577768e-13
         4   1.3345044           1589   140            151            151            0              1147           2.0878877e-13
         5   1.518829            1926   142            160            158            0              1466           2.2144702e-13
         6   1.6561197           2253   149            164            162            0              1778           2.3370173e-13
         7   1.7851603           2588   156            173            168            0              2091           2.4567552e-13
         8   1.8940832           2954   162            186            173            0              2433           2.5754198e-13
         9   2.035322            3327   175            193            183            0              2776           2.6904325e-13
        10   2.2026832           3696   182            202            192            0              3120           2.8027834e-13
        11   2.3455538           4096   188            214            197            0              3497           2.9131519e-13
        12   2.4477848           4486   194            221            201            0              3870           3.0209754e-13
        13   2.5471923           4862   200            223            206            0              4233           3.1262448e-13
        14   2.6362126           5275   205            234            217            0              4619           3.2304588e-13
        15   2.7268538           5689   210            241            219            0              5019           3.3324585e-13
        16   2.8151755           6097   215            244            224            0              5414           3.4324953e-13
        17   2.9271223           6504   216            249            230            0              5809           3.5307855e-13
        18   3.0287172           6917   222            255            239            0              6201           3.6273898e-13
        19   3.1394983           7339   231            258            251            0              6599           3.7217697e-13
        20   3.2618931           7743   235            260            255            0              6993           3.8134943e-13
        21   3.3586525           8146   239            264            261            0              7382           3.9029567e-13
        22   3.4638654           8597   246            275            268            0              7808           3.9925785e-13
        23   3.548596            9004   254            279            274            0              8197           4.0779908e-13
        24   3.6635211           9429   257            285            278            0              8609           4.1639611e-13
        25   3.7423858           9844   260            288            283            0              9013           4.2477047e-13
        26   3.8725633          10249   263            292            291            0              9403           4.3293534e-13
        27   3.9887618          10669   266            299            299            0              9805           4.4105873e-13
        28   4.0763426          11088   270            303            307            0              10208          4.490074e-13 
        29   4.1817638          11526   275            304            320            0              10627          4.5687392e-13
        30   4.3403557          11937   279            307            326            0              11025          4.6436186e-13
        31   4.456722           12346   282            308            330            0              11426          4.7169314e-13
        32   4.5726191          12767   284            315            331            0              11837          4.7892321e-13
        33   4.738538           13175   292            317            334            0              12232          4.8591208e-13
        34   4.9727996          13619   299            321            339            0              12660          4.9279182e-13
        35   5.2264979          14018   301            324            340            0              13053          4.9930491e-13
        36   5.610873           14461   304            329            346            0              13482          5.0579362e-13
        37   5.8980053          14884   306            331            349            0              13898          5.1195006e-13
        38   6.3915509          15329   315            333            355            0              14326          5.1807733e-13
        39   7.1442597          15751   316            337            362            0              14736          5.240326e-13 
        40   7.7320167          16184   319            337            369            0              15159          5.3006057e-13
        41   8.5930681          16594   326            338            373            0              15557          5.3564391e-13
        42   9.4615025          17050   327            340            378            0              16005          5.4132769e-13
        43   10.321245          17468   331            343            380            0              16414          5.466965e-13 
        44   11.226098          17917   334            344            382            0              16857          5.5208748e-13
        45   12.146273          18339   335            346            387            0              17271          5.5715618e-13
        46   13.05799           18784   339            347            389            0              17709          5.622123e-13 
        47   13.990976          19212   339            348            391            0              18134          5.6710887e-13
        48   14.953047          19647   342            350            393            0              18562          5.7188997e-13
        49   15.962595          20083   345            351            397            0              18990          5.7671464e-13
        50   17.030297          20525   348            353            402            0              19422          5.8128414e-13
        51   18.057359          20960   352            353            405            0              19850          5.8580896e-13
        52   19.132595          21427   356            355            410            0              20306          5.9031918e-13
        53   20.211631          21841   358            357            411            0              20715          5.9456692e-13
        54   21.36136           22307   361            361            413            0              21172          5.9899183e-13
        55   22.504798          22729   363            361            416            0              21589          6.0300373e-13
        56   23.677534          23177   365            362            417            0              22033          6.0710682e-13
        57   24.859835          23619   366            365            417            0              22471          6.1119213e-13
        58   26.072311          24057   367            365            419            0              22906          6.1521904e-13
        59   27.341141          24506   370            367            423            0              23346          6.1920716e-13
        60   57.878813          24938   370            368            428            0              23772          6.230651e-13 
        61   59.16218           25399   371            372            429            0              24227          6.2695473e-13
        62   60.47615           25834   376            374            431            0              24653          6.306641e-13 
        63   61.813068          26300   377            377            436            0              25110          6.3445509e-13
        64   63.211587          26738   378            379            438            0              25543          6.3807161e-13
        65   64.605039          27190   380            379            439            0              25992          6.4166305e-13
        66   66.054315          27634   383            383            440            0              26428          6.451639e-13 
        67   67.53126           28088   383            384            440            0              26881          6.4878119e-13
        68   69.000691          28538   385            384            444            0              27325          6.5240508e-13
        69   70.538581          28987   385            384            449            0              27769          6.5597743e-13
        70   72.178381          29423   388            386            450            0              28199          6.5947867e-13
        71   73.766106          29889   390            388            453            0              28658          6.6304554e-13
        72   75.360884          30334   391            388            456            0              29099          6.6643766e-13
        73   76.986947          30773   392            391            460            0              29530          6.6975214e-13
        74   78.6427            31234   394            392            462            0              29986          6.7329984e-13
        75   80.345026          31689   396            394            465            0              30434          6.7678676e-13
        76   82.085213          32135   400            396            467            0              30872          6.8019458e-13
        77   83.853526          32608   403            398            471            0              31336          6.8373832e-13
        78   85.648105          33053   404            400            475            0              31774          6.8713317e-13
        79   87.49374           33531   409            400            476            0              32246          6.9066707e-13
        80   89.524706          33984   412            401            483            0              32688          6.9393922e-13
        81   91.480777          34472   414            402            485            0              33171          6.9739505e-13
        82   93.459564          34914   415            405            487            0              33607          7.0055206e-13
        83   95.445797          35408   416            407            489            0              34096          7.0405842e-13
        84   97.491772          35854   416            408            493            0              34537          7.0728551e-13
        85   99.571411          36326   417            410            495            0              35004          7.1052162e-13
        86   101.7716           36807   419            411            501            0              35476          7.1371998e-13
        87   103.99898          37263   420            412            502            0              35929          7.1695273e-13
        88   106.20604          37723   422            413            503            0              36385          7.2032816e-13
        89   108.47247          38194   422            415            506            0              36851          7.2370534e-13
        90   110.90135          38648   425            415            510            0              37298          7.2701272e-13
        91   113.32619          39127   426            415            514            0              37772          7.3050015e-13
        92   115.7981           39582   428            415            522            0              38217          7.3405034e-13
        93   118.32253          40049   429            417            526            0              38677          7.3814462e-13
        94   121.0008           40489   432            418            532            0              39107          7.4227663e-13
        95   123.67821          40971   434            419            541            0              39577          7.4719532e-13
        96   126.3545           41385   437            420            551            0              39977          7.5209556e-13
        97   129.11004          41874   441            422            564            0              40447          7.5750816e-13
        98   131.87874          42293   444            422            575            0              40852          7.6297959e-13
        99   134.74694          42766   447            423            588            0              41308          7.6894038e-13
       100   137.71085          43187   449            428            600            0              41710          7.7490288e-13
       101   140.64723          43619   450            428            610            0              42131          7.8119148e-13
       102   143.55417          44061   455            431            623            0              42552          7.8765975e-13
       103   146.53831          44500   461            433            635            0              42971          7.9435689e-13
       104   149.60959          44949   463            434            658            0              43394          8.0117156e-13
       105   152.60793          45369   466            436            669            0              43798          8.0788329e-13
       106   155.71299          45822   468            436            691            0              44227          8.1466721e-13
       107   158.94156          46242   471            441            707            0              44623          8.2138934e-13
       108   162.10511          46704   477            445            716            0              45066          8.2835165e-13
       109   165.34405          47117   483            445            728            0              45461          8.3502318e-13
       110   168.75899          47569   485            445            741            1              45897          8.4190122e-13
       111   172.11551          48024   489            450            756            3              46326          8.4856511e-13
       112   175.50253          48465   492            455            773            3              46742          8.5530573e-13
       113   178.96616          48947   498            460            784            5              47200          8.6194416e-13
       114   182.48479          49385   500            464            801            7              47613          8.6789848e-13
       115   186.09505          49834   502            466            807            7              48052          8.7392381e-13
       116   189.66317          50292   507            470            814            8              48493          8.7939776e-13
       117   193.27599          50737   512            471            822            9              48923          8.8447069e-13
       118   197.02606          51210   515            479            831            10             49375          8.8944655e-13
       119   200.7708           51706   516            483            834            12             49861          8.9423267e-13
       120   204.71974          52186   521            487            842            13             50323          8.985451e-13 
       121   208.64839          52652   523            491            842            17             50779          9.0231003e-13
       122   212.59489          53183   525            495            851            18             51294          9.0595798e-13
       123   216.56829          53704   525            501            846            25             51807          9.0908682e-13
       124   220.54708          54232   528            503            846            30             52325          9.1206084e-13
       125   224.60348          54745   532            503            838            38             52834          9.1475556e-13
       126   228.71654          55290   533            503            835            42             53377          9.1747598e-13
       127   232.96371          55866   535            505            830            48             53948          9.1994769e-13
       128   237.23475          56418   537            505            831            49             54496          9.222098e-13 
       129   241.52394          56995   539            507            825            55             55069          9.2435704e-13
       130   246.05314          57573   540            508            823            57             55645          9.2635777e-13
       131   250.4787           58145   540            508            820            61             56216          9.2832251e-13
       132   254.9787           58740   541            509            818            64             56808          9.3033118e-13
       133   259.56825          59334   541            510            811            71             57401          9.3231908e-13
       134   264.21513          59945   541            510            809            73             58012          9.3425498e-13
       135   268.94107          60534   542            512            808            74             58598          9.3606929e-13
       136   273.74544          61118   543            512            804            78             59181          9.3790167e-13
       137   278.63512          61728   544            512            804            81             59787          9.3984741e-13
       138   283.6108           62306   545            513            799            86             60363          9.4169117e-13
       139   288.67753          62922   545            515            798            88             60976          9.4366064e-13
       140   293.99683          63497   549            515            794            93             61546          9.4557722e-13
       141   299.22902          64105   550            515            792            95             62153          9.4748635e-13
       142   304.53065          64689   550            518            788            99             62734          9.4939992e-13
       143   309.93746          65291   551            519            787            100            63334          9.5141448e-13
       144   315.43422          65886   555            521            785            102            63923          9.5324517e-13
       145   321.06208          66494   555            521            776            111            64531          9.5527727e-13
       146   326.74989          67088   556            523            774            113            65122          9.5713431e-13
       147   332.51458          67692   557            525            771            117            65722          9.5912361e-13
       148   338.381            68288   557            527            770            120            66314          9.6117832e-13
       149   344.31548          68885   557            530            767            123            66908          9.630711e-13 
       150   350.52022          69501   559            530            767            124            67521          9.6504581e-13
       151   356.63317          70072   560            530            766            125            68091          9.6690152e-13
       152   362.86019          70673   560            530            765            126            68692          9.6885659e-13
       153   369.15056          71271   560            530            766            128            69287          9.7092009e-13
       154   375.52529          71873   561            532            765            129            69886          9.7291109e-13
       155   381.9733           72474   561            533            766            129            70485          9.7502008e-13
       156   388.52971          73086   562            534            765            132            71093          9.7709301e-13
       157   395.15396          73682   562            535            763            134            71688          9.791326e-13 
       158   401.86933          74271   562            535            760            137            72277          9.8108965e-13
       159   408.67942          74874   563            536            757            140            72878          9.8320495e-13
       160   415.75871          75466   564            536            753            144            73469          9.8521494e-13
       161   422.75731          76062   564            537            753            145            74063          9.8728183e-13
       162   429.87419          76651   564            537            753            145            74652          9.8929211e-13
       163   437.07982          77257   564            538            752            147            75256          9.9144633e-13
       164   444.35659          77844   565            539            748            151            75841          9.9342065e-13
       165   451.72478          78457   565            540            745            154            76453          9.9559391e-13
       166   459.17529          79032   565            542            743            156            77026          9.9754944e-13
       167   466.68206          79653   565            543            742            158            77645          9.9970934e-13
       168   474.27423          80249   565            544            741            159            78240          1.0017819e-12
       169   481.97393          80863   566            545            738            162            78852          1.0038965e-12
       170   489.93595          81447   566            547            734            166            79434          1.0059237e-12
       171   497.82539          82075   567            548            731            170            80059          1.0080686e-12
       172   505.76887          82667   567            548            728            173            80651          1.0101201e-12
       173   513.81027          83279   567            548            725            177            81262          1.0122594e-12
       174   521.95947          83876   567            549            721            181            81858          1.014378e-12 
       175   530.19663          84481   567            549            717            186            82462          1.0164487e-12
       176   538.54157          85086   568            549            716            188            83065          1.0186042e-12
       177   546.97545          85685   568            549            715            189            83664          1.0206076e-12
       178   555.49441          86279   568            550            714            190            84257          1.0227005e-12
       179   564.117            86882   569            551            714            190            84858          1.024724e-12 
       180   573.03302          87495   570            551            713            192            85469          1.0268707e-12
       181   581.84491          88088   570            551            711            195            86061          1.0288718e-12
       182   590.77217          88703   570            551            709            197            86676          1.0310075e-12
       183   599.78048          89280   570            552            709            198            87251          1.0329277e-12
       184   608.90601          89925   570            554            703            204            87894          1.035122e-12 
       185   618.13739          90505   571            554            702            206            88472          1.0371451e-12
       186   627.43104          91123   572            554            701            207            89089          1.0391854e-12
       187   636.82644          91737   573            554            701            208            89701          1.0412551e-12
       188   646.32975          92337   573            555            695            214            90300          1.0433185e-12
       189   655.94684          92947   573            556            693            216            90909          1.0454623e-12
       190   665.97403          93549   575            557            692            218            91507          1.0475496e-12
       191   675.76637          94171   575            557            691            221            92127          1.0497376e-12
       192   685.67731          94757   575            557            689            223            92713          1.0517578e-12
       193   695.69181          95394   576            558            688            225            93347          1.0539773e-12
       194   705.80538          95973   577            558            686            227            93925          1.0559847e-12
       195   715.9852           96607   577            558            684            229            94559          1.0582616e-12
       196   726.26885          97201   577            558            682            231            95153          1.0602369e-12
       197   736.63223          97836   579            558            677            236            95786          1.0624582e-12
       198   747.11264          98436   579            558            676            237            96386          1.0644666e-12
       199   757.70318          99049   579            558            675            238            96999          1.0665918e-12
       200   768.62621          99662   579            560            673            241            97609          1.0686687e-12
       201   779.42389         100275   579            561            669            246            98220          1.0707691e-12
       202   790.31924         100894   580            561            669            246            98838          1.0729474e-12
       203   801.31544         101494   582            561            669            248            99434          1.0749374e-12
       204   812.39231         102126   582            562            667            251            100064         1.0771303e-12
       205   823.53445         102730   582            562            666            252            100668         1.0792111e-12
       206   834.84809         103355   583            564            667            253            101288         1.0813799e-12
       207   846.25971         103965   583            564            668            254            101896         1.0835443e-12
       208   857.75967         104594   583            564            665            257            102525         1.0858478e-12
       209   869.44786         105183   583            564            664            258            103114         1.0879199e-12
       210   881.47587         105822   583            564            659            263            103753         1.0903565e-12
       211   893.41122         106407   583            564            657            265            104338         1.0924965e-12
       212   905.45587         107039   585            566            654            268            104966         1.0948511e-12
       213   917.62107         107660   585            566            650            273            105586         1.0971788e-12
       214   929.89557         108262   585            566            648            275            106188         1.0994178e-12
       215   942.2522          108893   586            566            646            277            106818         1.1017922e-12
       216   954.71755         109497   588            566            642            281            107420         1.1039864e-12
       217   967.2909          110131   588            568            635            288            108052         1.1064011e-12
       218   979.98124         110741   588            569            630            294            108660         1.1086275e-12
       219   992.72816         111367   588            569            630            296            109284         1.1110432e-12
       220   1005.8344         111962   588            569            629            297            109879         1.1132757e-12
       221   1018.6009         112604   588            570            628            299            110519         1.1157528e-12
       222   1031.4679         113193   588            570            626            301            111108         1.1179236e-12
       223   1044.4115         113838   588            569            624            305            111752         1.1203854e-12
       224   1057.4537         114428   588            571            625            306            112338         1.122568e-12 
       225   1070.6466         115070   589            571            622            312            112976         1.1252356e-12
       226   1083.9529         115664   589            572            620            314            113569         1.1276809e-12
       227   1097.3898         116311   589            572            616            319            114215         1.1303838e-12
       228   1110.8654         116918   589            572            611            324            114822         1.1330497e-12
       229   1124.5762         117549   589            573            611            326            115450         1.1358117e-12
       230   1138.522          118166   590            574            608            331            116063         1.1386026e-12
       231   1152.3421         118787   590            574            606            335            116682         1.1413306e-12
       232   1166.312          119419   592            575            608            336            117308         1.1445173e-12
       233   1180.4322         120026   592            577            609            338            117910         1.1479124e-12
       234   1194.774          120662   592            577            614            339            118540         1.1516182e-12
       235   1209.1863         121243   592            579            620            341            119111         1.1554283e-12
       236   1223.6405         121872   593            580            625            344            119730         1.1599527e-12
       237   1238.2558         122457   595            582            627            347            120306         1.1645619e-12
       238   1253.0361         123090   595            586            630            353            120926         1.1696851e-12
       239   1267.8341         123648   595            587            638            355            121473         1.1745933e-12
       240   1283.0244         124243   596            594            646            358            122049         1.1797221e-12
       241   1298.0219         124829   599            601            650            362            122617         1.1848457e-12
       242   1313.1223         125412   601            603            665            367            123176         1.1902495e-12
       243   1328.3605         125975   601            606            669            370            123729         1.1956863e-12
       244   1343.6789         126570   602            611            676            375            124306         1.2012384e-12
       245   1359.1467         127110   603            616            679            378            124834         1.2064717e-12
       246   1374.7535         127693   605            620            686            381            125401         1.2119661e-12
       247   1390.4585         128241   607            625            684            387            125938         1.2169817e-12
       248   1406.2845         128837   607            632            689            396            126513         1.2219664e-12
       249   1422.1108         129359   609            637            687            401            127025         1.2265347e-12
       250   1438.3445         129883   611            643            686            408            127535         1.2310176e-12
       251   1454.4237         130475   616            648            685            415            128111         1.2355268e-12
       252   1470.5642         131038   618            652            687            421            128660         1.2396148e-12
       253   1486.8294         131618   622            654            686            426            129230         1.2432731e-12
       254   1503.1438         132247   625            658            681            434            129849         1.2469229e-12
       255   1519.5693         132883   628            658            673            444            130480         1.2503881e-12
       256   1536.077          133536   626            659            670            452            131129         1.2537541e-12
       257   1552.6767         134166   626            662            661            461            131756         1.2567854e-12
       258   1569.4254         134844   627            662            656            469            132430         1.259852e-12 
       259   1586.2554         135533   627            662            647            479            133118         1.2628036e-12
       260   1603.5522         136238   627            661            641            487            133822         1.2659433e-12
       261   1620.7178         136943   628            662            633            495            134525         1.2689933e-12
       262   1637.9554         137654   629            661            626            505            135233         1.2719633e-12
       263   1655.3476         138361   630            661            625            506            135939         1.2750283e-12
       264   1672.8847         139075   631            661            622            509            136652         1.2780414e-12
       265   1690.5259         139835   632            663            618            514            137408         1.2810876e-12
       266   1708.3264         140533   632            663            617            516            138105         1.2839972e-12
       267   1726.4355         141261   633            663            613            520            138832         1.2870033e-12
       268   1744.7019         141989   634            664            611            522            139558         1.2900075e-12
       269   1763.0692         142726   634            664            607            526            140295         1.2929576e-12
       270   1781.8785         143435   634            663            604            530            141004         1.2958479e-12
       271   1800.549          144155   635            664            602            532            141722         1.2987998e-12
       272   1819.4981         144882   636            664            601            534            142447         1.301741e-12 
       273   1838.4454         145607   637            662            599            538            143171         1.304588e-12 
       274   1857.5239         146340   638            664            596            541            143901         1.3075018e-12
       275   1876.732          147049   638            665            590            547            144609         1.3102796e-12
       276   1896.0642         147779   639            665            588            550            145337         1.3132121e-12
       277   1915.5609         148521   640            665            587            553            146076         1.3160917e-12
       278   1935.2964         149232   641            665            584            557            146785         1.3189066e-12
       279   1955.1504         149974   641            665            582            559            147527         1.3218663e-12
       280   1975.5747         150662   640            665            580            563            148214         1.3246447e-12
       281   1995.6873         151427   641            666            578            566            148976         1.3277249e-12
       282   2015.854          152100   641            667            579            566            149647         1.3303764e-12
       283   2036.1878         152860   641            667            577            569            150406         1.3333683e-12
       284   2056.6255         153550   644            667            578            569            151092         1.3360871e-12
       285   2077.225          154289   644            667            578            569            151831         1.3390522e-12
       286   2097.9285         154999   644            666            576            572            152541         1.3418053e-12
       287   2118.7462         155731   644            666            573            575            153273         1.3446773e-12
       288   2139.7462         156426   643            665            569            582            153967         1.3474541e-12
       289   2160.9047         157172   644            667            569            583            154709         1.3503783e-12
       290   2182.5362         157872   645            666            566            587            155408         1.3531886e-12
       291   2203.909          158601   646            667            566            587            156135         1.3561365e-12
       292   2225.4091         159326   647            669            565            588            156857         1.3591074e-12
       293   2247.0332         160031   647            670            565            588            157561         1.3619851e-12
       294   2268.8497         160755   648            670            561            593            158283         1.3649374e-12
       295   2290.8284         161469   648            670            560            594            158997         1.3677578e-12
       296   2312.8882         162188   649            670            554            600            159715         1.3706602e-12
       297   2335.1458         162907   649            670            553            601            160434         1.3736143e-12
       298   2357.5725         163622   650            670            554            601            161147         1.3764641e-12
       299   2380.1488         164345   650            670            550            605            161870         1.3794175e-12
       300   2403.2019         165051   651            670            549            606            162575         1.3822336e-12
Loop time of 2403.2 on 16 procs for 300 steps with 165051 atoms

97.1% CPU use with 16 MPI tasks x 1 OpenMP threads

MPI task timing breakdown:
Section |  min time  |  avg time  |  max time  |%varavg| %total
---------------------------------------------------------------
Pair    | 693.31     | 749.89     | 822.74     | 138.1 | 31.20
Neigh   | 699.28     | 763.55     | 898.28     | 175.2 | 31.77
Comm    | 219.54     | 228.02     | 237.01     |  30.5 |  9.49
Output  | 35.01      | 35.01      | 35.011     |   0.0 |  1.46
Modify  | 420.07     | 619.29     | 740.78     | 323.9 | 25.77
Other   |            | 7.444      |            |       |  0.31

Nlocal:        10315.7 ave       11159 max        9853 min
Histogram: 1 4 2 4 2 0 2 0 0 1
Nghost:        7992.56 ave        8242 max        7702 min
Histogram: 1 1 0 0 3 7 1 0 2 1
Neighs:         126646 ave      142098 max      116935 min
Histogram: 1 3 2 3 4 0 1 1 0 1

Total # of neighbors = 2026330
Ave neighs/atom = 12.276993
Neighbor list builds = 26409
Dangerous builds = 26109

Total wall time: 0:40:03
