LAMMPS (23 Jun 2022 - Update 4)
  using 1 OpenMP thread(s) per MPI task
package omp 0
using multi-threaded neighbor list subroutines
#-----------------------------------------------------------------------------#
#                NUFEB Simulation: Heterotrophic Biofilm Growth               #
#-----------------------------------------------------------------------------#


#-----------------------------System Settings---------------------------------#

units si                                    # using si units (m, s, kg)
atom_style      coccus                      # using nufeb coccus atom style
atom_modify     map array sort 10 0         # map array - find atoms using indices
		                            # sort every 10

boundary        pp pp ff                    # periodic boundaries in x and y
                                            # fixed boundary in z

newton          off                         # forces between local and ghost
                                            # atoms are computed in each
					     # processor without communication

processors      * * 1                       # processor grid

comm_modify     vel yes                     # communicate velocities for ghost atoms

read_data       atom_ch.in	             # read atom.in file which defines domain size
Reading data file ...
  orthogonal box = (0 0 0) to (6e-05 6e-05 6e-05)
  4 by 4 by 1 MPI processor grid
  reading atoms ...
  150 atoms
  read_data CPU = 0.034 seconds
                                            # and initial atoms


#--------------------Microbes and Functional Groups-------------------------#

group           CROSS1   type 1               # assign type 1,2 atoms to CROSS group
50 atoms in group CROSS1
group           CROSS2   type 2
50 atoms in group CROSS2
group		CHEATER  type 3
50 atoms in group CHEATER
group           dead     type 4
0 atoms in group dead
group		EPS	 type 5
0 atoms in group EPS

neighbor        5e-7 bin                   # setting neighbour skin distance and style

neigh_modify    check yes                  # rebuild neighbour list if any atom
                                           # had moved more than half the skin distance


#--------------------------Mesh Grid and Substrates--------------------------#

# defining grid sytle, substrate names, and grid size
grid_style      nufeb/chemostat 3 sub metab1 metab2 5e-6

# set diffusion boundary conditions and initial concentrations (liquid:kg/m3)
grid_modify     set sub      pp pp nd  1.8e-4
No /omp style for force computation currently active
grid_modify     set metab1   pp pp nd  1e-4
No /omp style for force computation currently active
grid_modify     set metab2   pp pp nd  1e-4
No /omp style for force computation currently active


#--------------------------Biological Processes-------------------------------#

# heterotrophs growth
fix growth_cross1 CROSS1 nufeb/growth/cross1 sub 3.5e-5 metab2 4e-3 metab1 growth 0.009 yield 0.6 decay 2.6e-6 metab1_exp 20 epsyield 0.12 epsdens 30

fix growth_cross2 CROSS2 nufeb/growth/cross2 sub 3.5e-5 metab1 4e-3 metab2 growth 0.009 yield 0.6 decay 2.6e-6 metab2_exp 20 epsyield 0.12 epsdens 30

fix growth_cheater CHEATER nufeb/growth/cheater sub 3.5e-5 metab1 1e-3 metab2 1e-3 growth 0.009 yield 0.6 decay 2.6e-6 epsyield 0.12 epsdens 30

# heterotrophs division, division diameter: 1.36e-6
fix div1 CROSS1 nufeb/division/coccus 1.36e-6 112
fix div2 CROSS2 nufeb/division/coccus 1.36e-6 142
fix div3 CHEATER nufeb/division/coccus 1.36e-6 190

fix death1 CROSS1 nufeb/death/diameter dead 5.43e-7
fix death2 CROSS2 nufeb/death/diameter dead 5.43e-7
fix death3 CHEATER nufeb/death/diameter dead 5.43e-7

# EPS secretion from heterotrophs
fix eps1 CROSS1 nufeb/eps_secretion 5 EPS 1.1 30 256
fix eps2 CROSS2 nufeb/eps_secretion 5 EPS 1.1 30 340
fix eps3 CROSS2 nufeb/eps_secretion 5 EPS 1.1 30 442
#---------------------------Physical Processes--------------------------------#

pair_style  gran/hooke/history 1e-4 NULL 1e-5 NULL 0.0 0    # pairwise interaction
pair_coeff  * *                                             # between atoms

# pairwise interaction between z-wall and atoms
fix wall all wall/gran hooke/history 1e-3 NULL 1e-4 NULL 0 0 zplane 0.0 1e-04

fix vis all viscous 1e-5                                    # viscous damping force

fix grav all gravity 9.81 vector 0.0 0.0 -1.0

fix nve all nve/limit 1e-7                                  # NVE integration with
                                                            # maximum distance limit


#---------------------------Post-Physical Processes---------------------------#

fix coeff_sub all nufeb/diffusion_coeff sub ratio 0.8       # defining diffusion coeff in the biofilm
fix coeff_metab1 all nufeb/diffusion_coeff metab1 ratio 0.8    # region is 80% of the value in liquid
fix coeff_metab2 all nufeb/diffusion_coeff metab2 ratio 0.8

#---------------------------Chemical Processes---------------------------------#

fix diff_sub all nufeb/diffusion_reaction sub 1e-9        # diffusion reaction for updating
fix diff_metab1 all nufeb/diffusion_reaction metab1 4e-9     # distribusion of substrate concentration
fix diff_metab2 all nufeb/diffusion_reaction metab2 4e-9

#--------------------------Computations and Outputs----------------------------#

variable mass equal "mass(all)"                             # total mass
variable ncross1 equal "count(CROSS1)"                      # total # of CROSS1
variable ncross2 equal "count(CROSS2)"                      # total # of CROSS2
variable ncheater equal "count(CHEATER)"
variable ndead equal "count(dead)"
variable neps equal "count(EPS)"

shell mkdir vtk_CHEPS_ch                                            # dump vtk files to /vtk folder
dump du1 all vtk 10 vtk_CHEPS_ch/dump*.vtu id type diameter         # require build NUFEB with vtk option
dump du2 all grid/vtk 10 vtk_CHEPS_ch/dump_%_*.vti con rea den gro

#dump du3 all movie 10 movie.avi type diameter view 80 60    # dump video
#dump_modify du3 acolor 1 blue acolor 2 lightgrey framerate 10


                                                            # dump hdf5 files to /hdf5 folder
#shell mkdir hdf5                                           # require build NUFEB with hdf5 option
#dump du3 all nufeb/hdf5 10 dump.h5 id type x y z vx vy vz fx fy fz radius conc reac

thermo_style custom step cpu atoms v_ncross1 v_ncross2 v_ncheater v_ndead v_neps v_mass     # screen and log outputs
thermo 1
thermo_modify   lost ignore

#-----------------------------------Run----------------------------------------#

# issue run command, define timesteps for physical (pairdt) and chemical (diffdt) processes
run_style nufeb diffdt 1e-4 difftol 1e-6 pairdt 1e-2 pairtol 1 pairmax 1000 diffmax 5000

timestep 12000                                               # define biological timesteps (1000s)

run 300                                                    # growing biofilm for 900x1000s
Generated 0 of 6 mixed pair_coeff terms from geometric mixing rule
Last active /omp style is pair_style gran/hooke/history/omp
Neighbor list info ...
  update every 1 steps, delay 10 steps, check yes
  max neighbors/atom: 2000, page size: 100000
  master list distance cutoff = 2.49e-06
  ghost atom cutoff = 2.49e-06
  binsize = 1.245e-06, bins = 49 49 49
  1 neighbor lists, perpetual/occasional/extra = 1 0 0
  (1) pair gran/hooke/history/omp, perpetual
      attributes: half, newton off, size, history, omp
      pair build: half/size/bin/newtoff/omp
      stencil: full/bin/3d
      bin: standard
Per MPI rank memory allocation (min/avg/max) = 11.02 | 11.02 | 11.02 Mbytes
   Step          CPU          Atoms      v_ncross1      v_ncross2      v_ncheater      v_ndead         v_neps         v_mass    
         0   0                    150   50             50             50             0              0              1.3295396e-13
         1   0.38602135           495   90             85             83             0              237            1.6440945e-13
         2   0.75267953           908   120            125            124            0              539            1.817201e-13 
         3   1.0439503           1245   130            144            141            0              830            1.958308e-13 
         4   1.3269933           1571   138            151            150            0              1132           2.0887308e-13
         5   1.4918627           1914   144            163            155            0              1452           2.2146143e-13
         6   1.6473827           2258   151            171            160            0              1776           2.3370847e-13
         7   1.7669557           2614   157            180            169            0              2108           2.4565796e-13
         8   1.9050367           2972   164            189            173            0              2446           2.5735164e-13
         9   2.0565474           3351   173            198            178            0              2802           2.6887279e-13
        10   2.2050063           3721   177            205            185            0              3154           2.8006894e-13
        11   2.31673             4084   185            209            194            0              3496           2.9102601e-13
        12   2.4351218           4475   191            217            199            0              3868           3.0179941e-13
        13   2.5509843           4866   197            220            202            0              4247           3.1232179e-13
        14   2.6477423           5262   202            232            210            0              4618           3.2246699e-13
        15   2.730786            5657   206            237            215            0              4999           3.3250333e-13
        16   2.8427137           6063   214            245            220            0              5384           3.4231956e-13
        17   2.9290878           6458   218            248            226            0              5766           3.5182136e-13
        18   3.0093217           6871   224            256            231            0              6160           3.611497e-13 
        19   3.0839353           7302   234            258            237            0              6573           3.7040196e-13
        20   3.212886            7706   236            263            250            0              6957           3.7930256e-13
        21   3.2981957           8114   241            265            254            0              7354           3.8815887e-13
        22   3.3901881           8538   245            271            257            0              7765           3.969012e-13 
        23   3.4917195           8945   247            280            263            0              8155           4.052597e-13 
        24   3.5854809           9370   250            283            271            0              8566           4.1363726e-13
        25   3.697193            9785   253            290            278            0              8964           4.2167168e-13
        26   3.8237439          10200   257            295            281            0              9367           4.2954282e-13
        27   3.9049214          10620   264            298            286            0              9772           4.3726019e-13
        28   4.0008663          11039   269            302            292            0              10176          4.4480694e-13
        29   4.1133188          11461   273            306            297            0              10585          4.5230561e-13
        30   16.133606          11883   277            309            298            0              10999          4.5957489e-13
        31   16.262636          12301   280            314            303            0              11404          4.6671405e-13
        32   16.363211          12726   282            316            310            0              11818          4.7379448e-13
        33   16.51213           13141   283            317            316            0              12225          4.8065422e-13
        34   16.669119          13546   286            321            321            0              12618          4.8729121e-13
        35   16.903637          13984   289            325            326            0              13044          4.9389105e-13
        36   17.12758           14403   293            328            331            0              13451          5.0018059e-13
        37   17.535226          14827   296            334            335            0              13862          5.0633535e-13
        38   18.0279            15267   298            338            338            0              14293          5.1240917e-13
        39   18.772037          15687   301            344            341            0              14701          5.1813307e-13
        40   19.570825          16118   304            345            342            0              15127          5.23894e-13  
        41   20.444226          16544   307            350            344            0              15543          5.2940934e-13
        42   21.299575          16959   308            350            350            0              15951          5.3483547e-13
        43   22.151284          17397   314            352            353            0              16378          5.401913e-13 
        44   23.014524          17819   316            352            355            0              16796          5.4556754e-13
        45   23.928288          18244   321            354            360            0              17209          5.5079564e-13
        46   24.856011          18681   323            356            364            0              17638          5.5599838e-13
        47   25.825741          19133   323            360            367            0              18083          5.6110579e-13
        48   26.803777          19556   327            362            371            0              18496          5.6594617e-13
        49   27.831374          19983   332            363            373            0              18915          5.7073319e-13
        50   41.46705           20438   336            364            377            0              19361          5.754253e-13 
        51   42.49553           20854   341            365            379            0              19769          5.7977331e-13
        52   43.589804          21307   344            368            383            0              20212          5.842531e-13 
        53   44.652615          21748   346            373            384            0              20645          5.8864027e-13
        54   45.739197          22203   350            374            387            0              21092          5.9298568e-13
        55   46.868258          22638   354            375            391            0              21518          5.9727455e-13
        56   48.024671          23105   357            379            394            0              21975          6.0157528e-13
        57   49.208714          23558   358            380            399            0              22421          6.0576859e-13
        58   50.393419          23989   359            382            400            0              22848          6.0981405e-13
        59   51.607432          24437   361            383            405            0              23288          6.1387096e-13
        60   52.936428          24887   364            384            407            0              23732          6.1796018e-13
        61   54.215237          25341   367            387            408            0              24179          6.2194591e-13
        62   55.540808          25789   367            389            410            0              24623          6.2599102e-13
        63   56.882437          26250   371            392            414            0              25073          6.2990548e-13
        64   58.242529          26702   371            393            418            0              25520          6.3367032e-13
        65   59.632512          27150   371            395            419            0              25965          6.3741673e-13
        66   61.04831           27613   372            402            422            0              26417          6.4104347e-13
        67   62.488616          28085   372            408            425            0              26880          6.4468114e-13
        68   63.96799           28535   374            409            427            0              27325          6.4828108e-13
        69   65.466433          28998   374            409            428            0              27787          6.5186167e-13
        70   67.113023          29459   377            413            430            0              28239          6.5528511e-13
        71   68.692969          29931   378            413            432            0              28708          6.5877067e-13
        72   70.305651          30367   379            413            433            0              29142          6.6204362e-13
        73   71.941671          30849   383            416            433            0              29617          6.6543111e-13
        74   73.613473          31301   384            418            437            0              30062          6.6855815e-13
        75   75.354699          31781   384            418            438            0              30541          6.7186354e-13
        76   77.124521          32228   385            420            442            0              30981          6.7502687e-13
        77   78.922344          32709   385            420            443            0              31461          6.7838853e-13
        78   80.754073          33159   387            421            447            0              31904          6.8153248e-13
        79   82.61628           33645   388            421            448            0              32388          6.8483785e-13
        80   84.62617           34085   390            422            449            0              32824          6.8785626e-13
        81   86.565219          34549   390            424            452            0              33283          6.911824e-13 
        82   88.530552          35012   391            424            454            0              33743          6.9440243e-13
        83   90.543799          35460   392            424            456            0              34188          6.9756214e-13
        84   92.62474           35939   393            425            459            0              34662          7.0096439e-13
        85   94.729245          36392   395            426            461            0              35110          7.0431831e-13
        86   96.904372          36852   395            427            463            0              35567          7.076816e-13 
        87   99.110324          37324   397            429            471            0              36027          7.1128873e-13
        88   101.35393          37784   399            430            473            0              36482          7.1497174e-13
        89   103.69762          38245   399            432            479            0              36935          7.1869451e-13
        90   106.18655          38719   400            432            488            0              37399          7.227671e-13 
        91   108.61151          39176   401            432            493            0              37850          7.2703264e-13
        92   111.06673          39636   401            434            502            0              38299          7.3146637e-13
        93   113.63443          40119   401            435            511            0              38772          7.3618279e-13
        94   116.20853          40567   402            435            518            0              39212          7.4091245e-13
        95   118.85491          41020   403            438            524            0              39655          7.4586225e-13
        96   121.51536          41484   403            438            539            0              40104          7.511094e-13 
        97   124.29016          41931   404            440            549            0              40538          7.5633613e-13
        98   127.17642          42390   404            442            558            0              40986          7.6209179e-13
        99   130.02199          42821   404            445            572            0              41400          7.6803938e-13
       100   133.07045          43279   406            449            584            0              41840          7.7415886e-13
       101   135.99754          43716   406            449            595            0              42266          7.8054937e-13
       102   139.00505          44157   407            452            610            0              42688          7.8697797e-13
       103   142.14528          44597   408            455            618            0              43116          7.9371818e-13
       104   145.23857          45023   408            457            632            0              43526          8.0079736e-13
       105   148.33905          45472   411            459            651            1              43950          8.0804022e-13
       106   151.61521          45910   412            463            672            1              44362          8.1520559e-13
       107   154.87026          46330   419            468            683            2              44758          8.2234344e-13
       108   158.25952          46784   420            471            699            3              45191          8.2963973e-13
       109   161.6766           47194   424            472            709            3              45586          8.3641555e-13
       110   165.23774          47600   428            480            722            3              45967          8.4314468e-13
       111   168.79194          48078   433            484            736            3              46422          8.4992033e-13
       112   172.40747          48495   437            486            753            3              46816          8.5627805e-13
       113   176.03364          48894   441            489            764            4              47196          8.6211062e-13
       114   179.62884          49351   445            493            779            4              47630          8.6769875e-13
       115   183.31244          49797   450            497            790            5              48055          8.7320381e-13
       116   187.07084          50232   455            501            801            5              48470          8.7856786e-13
       117   190.92568          50714   463            506            807            7              48931          8.8387715e-13
       118   194.8276           51162   464            508            809            10             49371          8.8833172e-13
       119   198.82141          51647   467            516            813            13             49838          8.928661e-13 
       120   203.02571          52131   472            516            815            19             50309          8.9696157e-13
       121   207.19496          52645   474            519            815            23             50814          9.0090721e-13
       122   211.39284          53140   476            521            815            25             51303          9.0425783e-13
       123   215.70137          53648   478            524            812            28             51806          9.0722321e-13
       124   219.99562          54174   480            530            810            32             52322          9.0988235e-13
       125   224.38068          54696   484            533            813            33             52833          9.1246206e-13
       126   228.80473          55242   489            533            812            36             53372          9.1508141e-13
       127   233.33548          55772   489            536            810            38             53899          9.1729718e-13
       128   237.94719          56332   490            537            804            45             54456          9.1945431e-13
       129   242.62514          56882   494            539            803            48             54998          9.2148111e-13
       130   247.55595          57468   494            539            796            55             55584          9.2349992e-13
       131   252.39736          58032   495            539            795            56             56147          9.2542881e-13
       132   257.31017          58639   496            539            792            60             56752          9.2741419e-13
       133   262.32937          59220   497            540            787            65             57331          9.2918743e-13
       134   267.43238          59804   499            540            782            71             57912          9.3096706e-13
       135   272.64177          60399   499            541            779            74             58506          9.3276768e-13
       136   277.95438          60983   499            542            778            75             59089          9.3451113e-13
       137   283.36579          61579   499            546            774            79             59681          9.3625267e-13
       138   288.8853           62158   499            547            773            80             60259          9.3794878e-13
       139   294.51437          62741   501            548            771            82             60839          9.3958511e-13
       140   300.38173          63356   503            548            772            82             61451          9.413493e-13 
       141   306.17805          63911   503            549            769            85             62005          9.4284299e-13
       142   312.0489           64511   507            549            766            88             62601          9.445116e-13 
       143   318.05755          65093   508            549            763            91             63182          9.4610518e-13
       144   324.1421           65682   508            550            762            92             63770          9.4785774e-13
       145   330.35365          66263   508            550            757            98             64350          9.4960964e-13
       146   336.61253          66848   508            551            756            100            64933          9.5137684e-13
       147   342.9997           67432   508            552            754            102            65516          9.5315007e-13
       148   349.4861           68025   508            554            753            103            66107          9.5495366e-13
       149   356.0721           68600   508            556            751            106            66679          9.566056e-13 
       150   363.00563          69201   509            556            750            109            67277          9.583606e-13 
       151   369.79559          69785   510            556            748            111            67860          9.600449e-13 
       152   376.67588          70388   511            557            744            115            68461          9.6184782e-13
       153   383.69263          70962   512            557            743            116            69034          9.635242e-13 
       154   390.7892           71550   512            557            738            121            69622          9.6529075e-13
       155   398.00222          72121   512            557            737            122            70193          9.6705982e-13
       156   405.31834          72713   512            558            733            126            70784          9.6884303e-13
       157   412.75165          73274   512            558            731            128            71345          9.7055573e-13
       158   420.32291          73873   513            560            728            131            71941          9.7245341e-13
       159   427.98253          74451   514            560            725            134            72518          9.7421128e-13
       160   435.92789          75035   514            561            721            138            73101          9.7610224e-13
       161   443.80912          75617   514            562            719            140            73682          9.7798152e-13
       162   451.75009          76196   515            563            718            141            74259          9.7980641e-13
       163   459.83784          76797   517            563            717            142            74858          9.8173437e-13
       164   468.02232          77364   519            563            714            145            75423          9.8351181e-13
       165   476.27027          77979   520            563            712            148            76036          9.8558001e-13
       166   484.63434          78547   520            564            711            149            76603          9.8741286e-13
       167   493.11746          79146   523            565            708            152            77198          9.8940363e-13
       168   501.66642          79716   523            565            707            153            77768          9.9128554e-13
       169   510.35448          80328   523            566            704            156            78379          9.9332937e-13
       170   519.3535           80901   524            566            699            161            78951          9.9523787e-13
       171   528.23835          81482   526            567            698            162            79529          9.9718462e-13
       172   537.30716          82096   527            569            695            166            80139          9.9927105e-13
       173   546.44603          82673   529            569            695            167            80713          1.0011825e-12
       174   555.65286          83272   532            569            693            169            81309          1.0031365e-12
       175   564.96585          83869   532            569            693            169            81906          1.0051753e-12
       176   574.39058          84439   532            569            693            169            82476          1.0070759e-12
       177   583.95633          85052   533            570            691            171            83087          1.0091615e-12
       178   593.59962          85632   533            570            690            172            83667          1.011127e-12 
       179   603.40735          86231   533            570            690            173            84265          1.0132276e-12
       180   613.52685          86830   534            570            690            174            84862          1.0152768e-12
       181   623.52108          87415   535            572            687            177            85444          1.0172163e-12
       182   633.64022          88011   535            572            687            177            86040          1.0192717e-12
       183   643.87332          88607   536            573            686            178            86634          1.0212244e-12
       184   654.18841          89207   536            573            683            181            87234          1.023281e-12 
       185   664.62889          89815   536            575            680            185            87839          1.0253036e-12
       186   675.12497          90385   536            575            677            188            88409          1.0272436e-12
       187   685.68855          91006   536            578            677            189            89026          1.0293383e-12
       188   696.29931          91601   536            579            678            190            89618          1.0313582e-12
       189   707.02833          92209   538            581            676            192            90222          1.0333634e-12
       190   718.09719          92814   539            585            676            192            90822          1.0354852e-12
       191   729.04749          93436   540            585            673            195            91443          1.037573e-12 
       192   740.17475          94009   541            585            672            196            92015          1.0395161e-12
       193   751.40021          94654   541            585            671            198            92659          1.0417292e-12
       194   762.73214          95230   541            585            670            199            93235          1.0437072e-12
       195   774.17733          95873   543            586            670            199            93875          1.0459044e-12
       196   785.77905          96458   543            586            668            201            94460          1.0479641e-12
       197   797.44975          97082   544            587            668            202            95081          1.0500538e-12
       198   809.23702          97694   544            587            666            204            95693          1.0521956e-12
       199   821.13996          98294   544            588            666            205            96291          1.0541763e-12
       200   833.3541           98903   544            589            666            205            96899          1.0563513e-12
       201   845.49342          99510   544            593            664            207            97502          1.0583884e-12
       202   857.77578         100119   544            593            662            209            98111          1.0605646e-12
       203   870.16134         100730   545            593            661            210            98721          1.0626755e-12
       204   882.67312         101344   545            595            652            219            99333          1.0648354e-12
       205   895.28131         101947   545            595            649            222            99936          1.0669347e-12
       206   908.0333          102582   546            596            647            224            100569         1.0692034e-12
       207   920.90098         103175   546            596            646            225            101162         1.0712502e-12
       208   933.88852         103790   546            597            643            228            101776         1.0734726e-12
       209   947.01058         104401   547            597            641            230            102386         1.0756698e-12
       210   960.49087         105011   548            595            639            235            102994         1.0777823e-12
       211   973.83826         105617   549            596            636            238            103598         1.0799139e-12
       212   987.32316         106246   550            596            633            241            104226         1.0821566e-12
       213   1000.911          106850   550            596            633            241            104830         1.0842863e-12
       214   1014.6326         107449   551            598            631            243            105426         1.0864054e-12
       215   1028.421          108080   551            598            628            247            106056         1.0886846e-12
       216   1042.3508         108695   552            598            628            247            106670         1.0909331e-12
       217   1056.4258         109302   552            599            625            251            107275         1.0933344e-12
       218   1070.6092         109923   553            600            624            252            107894         1.0957369e-12
       219   1085.005          110553   554            600            623            255            108521         1.0982867e-12
       220   1099.7675         111164   554            600            623            256            109131         1.1008069e-12
       221   1114.3654         111748   554            601            620            261            109712         1.1034705e-12
       222   1129.1238         112390   554            603            622            261            110350         1.1063263e-12
       223   1143.9984         112976   555            603            622            264            110932         1.1091634e-12
       224   1159.0029         113629   555            603            621            268            111582         1.1122764e-12
       225   1174.0888         114207   555            604            623            270            112155         1.1153869e-12
       226   1189.3015         114857   556            605            626            272            112798         1.1189058e-12
       227   1204.6304         115447   556            605            628            275            113383         1.1223064e-12
       228   1220.1289         116079   557            606            631            276            114009         1.125969e-12 
       229   1235.8178         116689   557            607            633            277            114615         1.1297441e-12
       230   1251.8561         117300   558            608            633            284            115217         1.1336112e-12
       231   1267.8649         117910   558            608            641            287            115816         1.1377854e-12
       232   1283.978          118513   558            608            641            292            116414         1.1420326e-12
       233   1300.22           119109   559            611            644            295            117000         1.1466089e-12
       234   1316.5379         119704   559            612            648            298            117587         1.1512993e-12
       235   1332.949          120324   560            614            652            301            118197         1.1562338e-12
       236   1349.5025         120931   562            617            661            306            118785         1.1614505e-12
       237   1366.188          121539   563            619            673            307            119377         1.1671168e-12
       238   1382.9919         122132   564            619            681            311            119957         1.1729813e-12
       239   1399.9505         122707   564            620            688            314            120521         1.1789784e-12
       240   1417.3342         123285   565            622            698            317            121083         1.1853419e-12
       241   1434.6248         123894   568            627            710            322            121667         1.1921017e-12
       242   1452.0708         124446   569            630            715            329            122203         1.198595e-12 
       243   1469.5915         125004   573            632            725            334            122740         1.2053542e-12
       244   1487.2488         125564   573            638            728            343            123282         1.2123247e-12
       245   1505.009          126068   575            641            734            350            123768         1.2189398e-12
       246   1522.8593         126622   582            644            747            350            124299         1.2253023e-12
       247   1540.8906         127156   586            647            756            356            124811         1.2312774e-12
       248   1559.072          127690   590            652            755            363            125330         1.2370249e-12
       249   1577.383          128245   593            656            756            371            125869         1.2425901e-12
       250   1596.0466         128798   596            660            757            382            126403         1.2476603e-12
       251   1614.5245         129369   599            663            758            392            126957         1.2525215e-12
       252   1633.1271         129973   600            667            751            407            127548         1.2569066e-12
       253   1651.8643         130570   601            667            746            415            128141         1.2608114e-12
       254   1670.6281         131132   603            669            739            428            128693         1.2643108e-12
       255   1689.4214         131767   605            672            728            440            129322         1.2675182e-12
       256   1708.3562         132391   607            675            723            447            129939         1.2703885e-12
       257   1727.3757         133091   610            677            718            452            130634         1.2731508e-12
       258   1746.5777         133752   611            676            714            457            131294         1.2756667e-12
       259   1766.0015         134442   611            675            704            468            131984         1.2781395e-12
       260   1785.8144         135153   613            676            698            475            132691         1.2805508e-12
       261   1805.5381         135893   615            674            690            485            133429         1.2829735e-12
       262   1825.4908         136616   615            676            683            493            134149         1.285305e-12 
       263   1845.5519         137337   617            679            676            500            134865         1.2876494e-12
       264   1865.7834         138074   616            679            670            507            135602         1.2900164e-12
       265   1886.1436         138802   617            679            666            511            136329         1.2924996e-12
       266   1906.7587         139502   617            678            659            520            137028         1.294762e-12 
       267   1927.4054         140252   617            677            655            525            137778         1.2972778e-12
       268   1948.2865         140980   618            677            653            528            138504         1.2996738e-12
       269   1969.4667         141727   619            677            652            529            139250         1.3021376e-12
       270   1991.2275         142454   619            676            651            531            139977         1.3045551e-12
       271   2012.871          143166   619            676            648            534            140689         1.3069626e-12
       272   2034.6076         143879   619            677            647            535            141401         1.3093797e-12
       273   2056.519          144610   620            674            646            539            142131         1.3118651e-12
       274   2078.4598         145331   620            674            643            542            142852         1.3143234e-12
       275   2100.5658         146039   620            674            641            544            143560         1.3166829e-12
       276   2122.9046         146776   620            675            639            546            144296         1.3192163e-12
       277   2145.3018         147461   619            675            636            550            144981         1.3214956e-12
       278   2167.9019         148239   619            675            635            553            145757         1.324126e-12 
       279   2190.7253         148908   618            676            633            556            146425         1.326368e-12 
       280   2214.1424         149671   620            675            628            562            147186         1.3289923e-12
       281   2237.2825         150357   620            676            619            571            147871         1.3313667e-12
       282   2260.5218         151087   620            676            617            573            148601         1.3339071e-12
       283   2283.9647         151778   620            675            615            577            149291         1.3363618e-12
       284   2307.5            152521   621            675            613            579            150033         1.3389134e-12
       285   2331.2317         153219   623            676            613            579            150728         1.3414031e-12
       286   2355.1339         153961   623            676            609            583            151470         1.3440147e-12
       287   2379.2513         154653   623            676            607            585            152162         1.3464689e-12
       288   2403.5297         155379   623            678            606            586            152886         1.3490231e-12
       289   2428.0411         156107   624            679            603            589            153612         1.3515954e-12
       290   2453.1175         156812   624            679            600            592            154317         1.3541009e-12
       291   2478.0519         157527   624            679            597            595            155032         1.3566528e-12
       292   2503.1719         158243   624            679            597            595            155748         1.3591715e-12
       293   2528.4855         158971   624            679            595            597            156476         1.3617505e-12
       294   2553.9691         159682   624            678            594            599            157187         1.3642811e-12
       295   2579.5528         160399   624            678            592            601            157904         1.3667303e-12
       296   2605.2685         161118   625            678            589            604            158622         1.3693549e-12
       297   2631.2093         161837   627            678            587            606            159339         1.3718884e-12
       298   2657.2985         162539   626            678            585            609            160041         1.374439e-12 
       299   2683.5486         163270   628            679            585            610            160768         1.3770746e-12
       300   2710.3153         163962   628            679            582            613            161460         1.3795517e-12
Loop time of 2710.32 on 16 procs for 300 steps with 163962 atoms

96.9% CPU use with 16 MPI tasks x 1 OpenMP threads

MPI task timing breakdown:
Section |  min time  |  avg time  |  max time  |%varavg| %total
---------------------------------------------------------------
Pair    | 845.11     | 923.33     | 1000.1     | 158.0 | 34.07
Neigh   | 700.41     | 751.04     | 850.07     | 140.9 | 27.71
Comm    | 332.47     | 344.63     | 353.01     |  30.2 | 12.72
Output  | 30.05      | 30.05      | 30.051     |   0.0 |  1.11
Modify  | 478.19     | 651.29     | 765.29     | 315.4 | 24.03
Other   |            | 9.976      |            |       |  0.37

Nlocal:        10247.6 ave       10912 max        9867 min
Histogram: 1 4 0 3 4 3 0 0 0 1
Nghost:        7936.88 ave        8257 max        7702 min
Histogram: 3 0 5 1 1 1 1 1 1 2
Neighs:         125088 ave      138281 max      117728 min
Histogram: 3 2 1 4 2 3 0 0 0 1

Total # of neighbors = 2001415
Ave neighs/atom = 12.206578
Neighbor list builds = 26421
Dangerous builds = 26121

Total wall time: 0:45:38
