LAMMPS (23 Jun 2022 - Update 4)
  using 1 OpenMP thread(s) per MPI task
package omp 0
using multi-threaded neighbor list subroutines
#-----------------------------------------------------------------------------#
#                NUFEB Simulation: Heterotrophic Biofilm Growth               #
#-----------------------------------------------------------------------------#


#-----------------------------System Settings---------------------------------#

units si                                    # using si units (m, s, kg)
atom_style      coccus                      # using nufeb coccus atom style
atom_modify     map array sort 10 0         # map array - find atoms using indices
		                            # sort every 10

boundary        pp pp ff                    # periodic boundaries in x and y
                                            # fixed boundary in z

newton          off                         # forces between local and ghost
                                            # atoms are computed in each
					     # processor without communication

processors      * * 1                       # processor grid

comm_modify     vel yes                     # communicate velocities for ghost atoms

read_data       atom_ch.in	             # read atom.in file which defines domain size
Reading data file ...
  orthogonal box = (0 0 0) to (6e-05 6e-05 6e-05)
  4 by 4 by 1 MPI processor grid
  reading atoms ...
  150 atoms
  read_data CPU = 0.027 seconds
                                            # and initial atoms


#--------------------Microbes and Functional Groups-------------------------#

group           CROSS1   type 1               # assign type 1,2 atoms to CROSS group
50 atoms in group CROSS1
group           CROSS2   type 2
50 atoms in group CROSS2
group		CHEATER  type 3
50 atoms in group CHEATER
group           dead     type 4
0 atoms in group dead
group		EPS	 type 5
0 atoms in group EPS

neighbor        5e-7 bin                   # setting neighbour skin distance and style

neigh_modify    check yes                  # rebuild neighbour list if any atom
                                           # had moved more than half the skin distance


#--------------------------Mesh Grid and Substrates--------------------------#

# defining grid sytle, substrate names, and grid size
grid_style      nufeb/chemostat 3 sub metab1 metab2 5e-6

# set diffusion boundary conditions and initial concentrations (liquid:kg/m3)
grid_modify     set sub      pp pp nd  1.8e-4
No /omp style for force computation currently active
grid_modify     set metab1   pp pp nd  1e-4
No /omp style for force computation currently active
grid_modify     set metab2   pp pp nd  1e-4
No /omp style for force computation currently active


#--------------------------Biological Processes-------------------------------#

# heterotrophs growth
fix growth_cross1 CROSS1 nufeb/growth/cross1 sub 3.5e-5 metab2 4e-3 metab1 growth 0.009 yield 0.6 decay 2.6e-6 metab1_exp 20 epsyield 0.12 epsdens 30

fix growth_cross2 CROSS2 nufeb/growth/cross2 sub 3.5e-5 metab1 4e-3 metab2 growth 0.009 yield 0.6 decay 2.6e-6 metab2_exp 20 epsyield 0.12 epsdens 30

fix growth_cheater CHEATER nufeb/growth/cheater sub 3.5e-5 metab1 1e-3 metab2 1e-3 growth 0.009 yield 0.6 decay 2.6e-6 epsyield 0.12 epsdens 30

# heterotrophs division, division diameter: 1.36e-6
fix div1 CROSS1 nufeb/division/coccus 1.36e-6 107
fix div2 CROSS2 nufeb/division/coccus 1.36e-6 122
fix div3 CHEATER nufeb/division/coccus 1.36e-6 145

fix death1 CROSS1 nufeb/death/diameter dead 5.43e-7
fix death2 CROSS2 nufeb/death/diameter dead 5.43e-7
fix death3 CHEATER nufeb/death/diameter dead 5.43e-7

# EPS secretion from heterotrophs
fix eps1 CROSS1 nufeb/eps_secretion 5 EPS 1.1 30 176
fix eps2 CROSS2 nufeb/eps_secretion 5 EPS 1.1 30 215
fix eps3 CROSS2 nufeb/eps_secretion 5 EPS 1.1 30 262
#---------------------------Physical Processes--------------------------------#

pair_style  gran/hooke/history 1e-4 NULL 1e-5 NULL 0.0 0    # pairwise interaction
pair_coeff  * *                                             # between atoms

# pairwise interaction between z-wall and atoms
fix wall all wall/gran hooke/history 1e-3 NULL 1e-4 NULL 0 0 zplane 0.0 1e-04

fix vis all viscous 1e-5                                    # viscous damping force

fix grav all gravity 9.81 vector 0.0 0.0 -1.0

fix nve all nve/limit 1e-7                                  # NVE integration with
                                                            # maximum distance limit


#---------------------------Post-Physical Processes---------------------------#

fix coeff_sub all nufeb/diffusion_coeff sub ratio 0.8       # defining diffusion coeff in the biofilm
fix coeff_metab1 all nufeb/diffusion_coeff metab1 ratio 0.8    # region is 80% of the value in liquid
fix coeff_metab2 all nufeb/diffusion_coeff metab2 ratio 0.8

#---------------------------Chemical Processes---------------------------------#

fix diff_sub all nufeb/diffusion_reaction sub 1e-9        # diffusion reaction for updating
fix diff_metab1 all nufeb/diffusion_reaction metab1 4e-9     # distribusion of substrate concentration
fix diff_metab2 all nufeb/diffusion_reaction metab2 4e-9

#--------------------------Computations and Outputs----------------------------#

variable mass equal "mass(all)"                             # total mass
variable ncross1 equal "count(CROSS1)"                      # total # of CROSS1
variable ncross2 equal "count(CROSS2)"                      # total # of CROSS2
variable ncheater equal "count(CHEATER)"
variable ndead equal "count(dead)"
variable neps equal "count(EPS)"

shell mkdir vtk_CHEPS_ch                                            # dump vtk files to /vtk folder
dump du1 all vtk 10 vtk_CHEPS_ch/dump*.vtu id type diameter         # require build NUFEB with vtk option
dump du2 all grid/vtk 10 vtk_CHEPS_ch/dump_%_*.vti con rea den gro

#dump du3 all movie 10 movie.avi type diameter view 80 60    # dump video
#dump_modify du3 acolor 1 blue acolor 2 lightgrey framerate 10


                                                            # dump hdf5 files to /hdf5 folder
#shell mkdir hdf5                                           # require build NUFEB with hdf5 option
#dump du3 all nufeb/hdf5 10 dump.h5 id type x y z vx vy vz fx fy fz radius conc reac

thermo_style custom step cpu atoms v_ncross1 v_ncross2 v_ncheater v_ndead v_neps v_mass     # screen and log outputs
thermo 1
thermo_modify   lost ignore

#-----------------------------------Run----------------------------------------#

# issue run command, define timesteps for physical (pairdt) and chemical (diffdt) processes
run_style nufeb diffdt 1e-4 difftol 1e-6 pairdt 1e-2 pairtol 1 pairmax 1000 diffmax 5000

timestep 12000                                               # define biological timesteps (1000s)

run 300                                                    # growing biofilm for 900x1000s
Generated 0 of 6 mixed pair_coeff terms from geometric mixing rule
Last active /omp style is pair_style gran/hooke/history/omp
Neighbor list info ...
  update every 1 steps, delay 10 steps, check yes
  max neighbors/atom: 2000, page size: 100000
  master list distance cutoff = 2.49e-06
  ghost atom cutoff = 2.49e-06
  binsize = 1.245e-06, bins = 49 49 49
  1 neighbor lists, perpetual/occasional/extra = 1 0 0
  (1) pair gran/hooke/history/omp, perpetual
      attributes: half, newton off, size, history, omp
      pair build: half/size/bin/newtoff/omp
      stencil: full/bin/3d
      bin: standard
Per MPI rank memory allocation (min/avg/max) = 11.02 | 11.02 | 11.02 Mbytes
   Step          CPU          Atoms      v_ncross1      v_ncross2      v_ncheater      v_ndead         v_neps         v_mass    
         0   0                    150   50             50             50             0              0              1.3295396e-13
         1   0.39392296           495   90             85             83             0              237            1.6440011e-13
         2   0.76632298           894   118            123            123            0              530            1.8152408e-13
         3   1.0622037           1263   128            147            139            0              849            1.9578362e-13
         4   1.346107            1608   137            160            145            0              1166           2.0882626e-13
         5   1.5175655           1945   143            164            157            0              1481           2.2141839e-13
         6   1.6750844           2307   151            175            164            0              1817           2.3375448e-13
         7   1.8254675           2672   158            187            169            0              2158           2.4581214e-13
         8   1.9772157           3033   166            192            173            0              2502           2.5760284e-13
         9   2.1160145           3391   171            199            179            0              2842           2.6910503e-13
        10   2.2528019           3757   177            204            185            0              3191           2.8047246e-13
        11   2.3621876           4146   183            214            193            0              3556           2.9170424e-13
        12   2.4581543           4551   189            224            204            0              3934           3.0278082e-13
        13   2.5874516           4952   191            230            214            0              4317           3.1367029e-13
        14   2.6989332           5353   198            237            219            0              4699           3.2419256e-13
        15   2.8002879           5761   205            243            222            0              5091           3.3466112e-13
        16   2.8984152           6175   208            246            229            0              5492           3.4498321e-13
        17   2.9990835           6571   214            252            234            0              5871           3.5499242e-13
        18   3.1105675           6984   222            257            240            0              6265           3.6498555e-13
        19   3.2117295           7399   225            258            245            0              6671           3.7493284e-13
        20   3.3591506           7823   232            262            258            0              7071           3.8468443e-13
        21   3.4387391           8235   238            270            266            0              7461           3.9401217e-13
        22   3.5323828           8661   244            275            284            0              7858           4.0335709e-13
        23   3.6314988           9083   248            277            292            0              8266           4.1249381e-13
        24   3.7343913           9504   250            285            298            0              8671           4.2133588e-13
        25   3.8662265           9914   253            289            304            0              9068           4.299087e-13 
        26   3.9655751          10319   256            292            312            0              9459           4.3826794e-13
        27   4.0574331          10748   261            296            316            0              9875           4.4655085e-13
        28   4.1872822          11163   268            300            321            0              10274          4.5453753e-13
        29   4.3115453          11573   272            304            325            0              10672          4.6237942e-13
        30   4.5480175          11993   275            306            335            0              11077          4.7005478e-13
        31   5.3395905          12404   277            309            339            0              11479          4.7761603e-13
        32   5.4808455          12803   278            314            345            0              11866          4.8490667e-13
        33   5.6491016          13224   282            316            349            0              12277          4.9226442e-13
        34   5.8059705          13628   285            318            353            0              12672          4.9920033e-13
        35   6.005964           14036   290            320            356            0              13070          5.060676e-13 
        36   6.195525           14456   294            322            361            0              13479          5.1267026e-13
        37   6.6327353          14872   296            327            365            0              13884          5.1910226e-13
        38   6.9653674          15308   303            328            373            0              14304          5.254785e-13 
        39   7.5833584          15743   306            331            380            0              14726          5.3175262e-13
        40   8.3230175          16166   307            333            388            0              15138          5.3768756e-13
        41   9.1787505          16583   309            333            393            0              15548          5.4340578e-13
        42   10.066905          16992   311            334            398            0              15949          5.4890309e-13
        43   10.972987          17418   313            336            400            0              16369          5.544445e-13 
        44   11.894609          17834   315            341            405            0              16773          5.5988018e-13
        45   12.82759           18266   315            343            410            0              17198          5.651799e-13 
        46   13.744681          18671   318            344            414            0              17595          5.7023712e-13
        47   14.687817          19109   322            346            417            0              18024          5.7544964e-13
        48   15.643785          19523   326            349            422            0              18426          5.8040547e-13
        49   16.650637          19957   328            352            424            0              18853          5.8541671e-13
        50   17.707351          20369   331            352            428            0              19258          5.9027349e-13
        51   18.727284          20814   335            354            432            0              19693          5.9514325e-13
        52   19.772667          21234   337            356            433            0              20108          5.9993598e-13
        53   22.112585          21671   340            357            436            0              20538          6.0453622e-13
        54   23.206674          22101   341            360            436            0              20964          6.0915799e-13
        55   24.322836          22540   345            362            438            0              21395          6.1362048e-13
        56   25.463725          22969   349            364            441            0              21815          6.1790208e-13
        57   26.627517          23421   350            366            451            0              22254          6.2226198e-13
        58   27.816767          23855   352            370            453            0              22680          6.2633927e-13
        59   29.036377          24327   357            373            457            0              23140          6.3049159e-13
        60   30.348164          24753   358            374            458            0              23563          6.3429892e-13
        61   31.603882          25198   359            374            461            0              24004          6.3823431e-13
        62   32.895659          25633   360            377            464            0              24432          6.4208698e-13
        63   34.201286          26076   365            378            466            0              24867          6.4602579e-13
        64   35.53469           26515   366            380            470            0              25299          6.4988308e-13
        65   36.938066          26967   367            381            473            0              25746          6.5376845e-13
        66   38.338595          27406   368            381            475            0              26182          6.5763691e-13
        67   39.772367          27842   370            382            477            0              26613          6.6132095e-13
        68   41.231904          28294   370            383            479            0              27062          6.6499008e-13
        69   42.714664          28722   373            384            481            0              27484          6.6872676e-13
        70   44.313106          29186   374            388            484            0              27940          6.7255602e-13
        71   45.883502          29622   376            390            486            0              28370          6.7604462e-13
        72   47.472073          30089   378            392            490            0              28829          6.7960482e-13
        73   49.086966          30521   379            394            490            0              29258          6.830042e-13 
        74   50.796371          30996   382            394            493            0              29727          6.8653502e-13
        75   52.496429          31434   384            396            495            0              30159          6.8979683e-13
        76   54.237407          31905   386            396            497            0              30626          6.9322897e-13
        77   55.988194          32338   388            396            500            0              31054          6.9636701e-13
        78   57.770334          32814   392            398            501            0              31523          6.9972658e-13
        79   59.615809          33253   394            398            507            0              31954          7.0287074e-13
        80   61.586135          33723   396            398            508            0              32421          7.0616643e-13
        81   63.502829          34152   397            399            511            0              32845          7.093309e-13 
        82   65.493709          34631   397            400            514            0              33320          7.1274011e-13
        83   67.504102          35068   398            400            516            0              33754          7.1593024e-13
        84   69.539182          35536   400            402            518            0              34216          7.1930987e-13
        85   71.651728          35975   405            404            525            0              34641          7.2250672e-13
        86   73.847021          36463   407            405            526            0              35125          7.2614959e-13
        87   76.129304          36899   408            406            534            0              35551          7.298816e-13 
        88   78.47672           37376   408            407            540            0              36021          7.3397752e-13
        89   80.864151          37812   411            409            548            0              36444          7.3825246e-13
        90   83.410531          38284   412            409            554            0              36909          7.427508e-13 
        91   85.919819          38714   414            409            560            0              37331          7.4715025e-13
        92   88.447404          39183   415            413            569            0              37786          7.5201175e-13
        93   90.945285          39622   416            417            577            0              38212          7.5685841e-13
        94   93.55034           40092   418            418            585            0              38671          7.6186231e-13
        95   96.184563          40525   420            420            592            0              39093          7.6691402e-13
        96   98.901042          40970   420            422            600            0              39528          7.7220093e-13
        97   101.67243          41420   420            423            615            0              39962          7.7770561e-13
        98   104.47273          41876   422            426            628            0              40400          7.8359466e-13
        99   107.30154          42322   425            427            643            0              40827          7.896257e-13 
       100   110.27212          42779   425            428            657            0              41269          7.9599754e-13
       101   113.22616          43214   426            431            674            0              41683          8.0226388e-13
       102   116.21907          43674   427            433            687            0              42127          8.0904613e-13
       103   119.25762          44120   430            436            702            0              42552          8.1581967e-13
       104   122.37648          44562   430            440            714            0              42978          8.2293628e-13
       105   125.5567           45004   431            440            732            0              43401          8.3009258e-13
       106   128.78586          45423   432            442            753            0              43796          8.3729609e-13
       107   132.11233          45893   434            444            773            1              44241          8.4486362e-13
       108   135.49496          46314   436            445            795            1              44637          8.5225257e-13
       109   138.92989          46755   436            448            812            2              45057          8.5961212e-13
       110   142.53886          47175   440            450            828            2              45455          8.6690105e-13
       111   146.0387           47601   447            451            844            3              45856          8.7410637e-13
       112   149.59785          48048   450            453            860            4              46281          8.8162667e-13
       113   153.1908           48461   454            458            874            5              46670          8.8863073e-13
       114   156.8599           48900   458            460            886            6              47090          8.9535412e-13
       115   160.60065          49337   462            461            897            7              47510          9.0209912e-13
       116   164.42843          49745   468            464            909            8              47896          9.0839224e-13
       117   168.30104          50231   473            467            920            9              48362          9.1466175e-13
       118   172.34142          50663   475            472            934            10             48772          9.2051192e-13
       119   176.44087          51105   483            474            945            13             49190          9.2559121e-13
       120   180.65645          51563   490            474            956            15             49628          9.3019944e-13
       121   184.88691          52035   492            481            961            18             50083          9.3424921e-13
       122   189.02828          52495   496            489            964            20             50526          9.3762628e-13
       123   193.36892          52950   497            489            966            24             50974          9.4078491e-13
       124   197.71191          53457   499            490            966            31             51471          9.4372969e-13
       125   202.11087          53961   502            493            961            36             51969          9.4628624e-13
       126   206.55557          54437   504            495            959            38             52441          9.4841857e-13
       127   211.07441          54971   506            495            958            41             52971          9.5051653e-13
       128   215.62231          55500   508            498            953            46             53495          9.5225439e-13
       129   220.23101          56075   509            499            947            53             54067          9.5392689e-13
       130   225.10451          56614   509            499            942            59             54605          9.5537519e-13
       131   229.90226          57192   513            500            941            62             55176          9.5681724e-13
       132   234.76665          57746   513            500            939            65             55729          9.5801822e-13
       133   239.74296          58361   516            503            939            66             56337          9.5943738e-13
       134   244.78731          58931   517            505            935            70             56904          9.6067191e-13
       135   249.91256          59508   517            505            928            77             57481          9.6191623e-13
       136   255.14685          60090   517            505            926            79             58063          9.6319659e-13
       137   260.48659          60686   517            505            922            83             58659          9.6456206e-13
       138   265.90363          61251   519            506            919            86             59221          9.657483e-13 
       139   271.40213          61839   520            507            919            88             59805          9.6705619e-13
       140   277.16359          62431   523            507            917            91             60393          9.682741e-13 
       141   282.86455          63012   523            507            913            95             60974          9.6949805e-13
       142   288.70259          63584   523            507            911            98             61545          9.7073186e-13
       143   294.61697          64197   523            507            904            105            62158          9.7218382e-13
       144   300.63103          64759   524            509            901            109            62716          9.7340884e-13
       145   306.74742          65357   524            512            900            110            63311          9.7484182e-13
       146   312.94982          65932   526            513            901            110            63882          9.7616015e-13
       147   319.2427           66520   527            516            898            113            64466          9.7751721e-13
       148   325.64906          67114   529            517            898            113            65057          9.7889807e-13
       149   332.1828           67722   530            518            895            116            65663          9.8032804e-13
       150   338.96006          68261   530            519            893            118            66201          9.8160328e-13
       151   345.70796          68873   530            523            890            121            66809          9.8313198e-13
       152   352.58115          69436   532            523            889            122            67370          9.8451968e-13
       153   359.53739          70044   532            524            887            124            67977          9.8594593e-13
       154   366.60851          70616   533            525            885            126            68547          9.8736015e-13
       155   373.80496          71218   534            525            885            126            69148          9.8887878e-13
       156   381.087            71790   534            525            883            128            69720          9.9018414e-13
       157   388.44461          72403   537            525            882            129            70330          9.917224e-13 
       158   395.93142          72967   538            525            879            132            70893          9.9302224e-13
       159   403.51063          73565   538            525            878            133            71491          9.9452741e-13
       160   411.34782          74133   539            525            877            134            72058          9.9591237e-13
       161   419.13522          74738   541            525            874            137            72661          9.9747314e-13
       162   427.05105          75311   541            525            870            141            73234          9.9888847e-13
       163   435.02758          75913   542            526            869            142            73834          1.0004313e-12
       164   443.12421          76476   542            527            868            143            74396          1.0018427e-12
       165   451.28504          77085   544            528            867            144            75002          1.0034616e-12
       166   459.54429          77642   544            528            866            146            75558          1.0048184e-12
       167   467.94466          78258   545            528            863            149            76173          1.0064564e-12
       168   476.45331          78849   547            530            863            149            76760          1.0079808e-12
       169   485.07064          79422   547            531            861            151            77332          1.0095535e-12
       170   493.95255          80019   547            532            859            153            77928          1.0112976e-12
       171   502.76092          80613   549            533            855            157            78519          1.0129064e-12
       172   511.70686          81218   550            534            854            158            79122          1.0146479e-12
       173   520.72182          81791   551            535            849            163            79693          1.01629e-12  
       174   529.84136          82400   551            537            845            167            80300          1.0180655e-12
       175   539.08438          82988   552            539            845            168            80884          1.0196571e-12
       176   548.43279          83609   552            539            839            174            81505          1.0215172e-12
       177   557.92269          84175   552            539            837            176            82071          1.0230083e-12
       178   567.4751           84805   552            541            835            178            82699          1.024908e-12 
       179   577.17635          85373   552            541            834            180            83266          1.026503e-12 
       180   587.25084          85973   554            541            831            183            83864          1.0282375e-12
       181   597.16323          86586   555            542            831            184            84474          1.0300879e-12
       182   607.14874          87171   557            542            830            185            85057          1.0318446e-12
       183   617.26177          87775   558            543            828            187            85659          1.0336862e-12
       184   627.51911          88357   558            543            826            189            86241          1.0354043e-12
       185   637.90492          88969   559            543            823            192            86852          1.0372998e-12
       186   648.39746          89565   560            543            820            195            87447          1.0391409e-12
       187   659.03589          90154   561            545            817            199            88032          1.0410294e-12
       188   669.74287          90752   562            547            816            200            88627          1.0428554e-12
       189   680.59123          91367   563            547            815            201            89241          1.0448757e-12
       190   691.74365          91944   563            548            813            204            89816          1.0466789e-12
       191   702.76013          92561   564            548            810            207            90432          1.0487573e-12
       192   713.89148          93149   564            548            808            209            91020          1.0506126e-12
       193   725.11465          93770   564            548            807            210            91641          1.0525672e-12
       194   736.49501          94364   564            548            806            211            92235          1.0544791e-12
       195   747.97244          94968   565            550            804            213            92836          1.0563788e-12
       196   759.60416          95553   566            551            801            217            93418          1.0582576e-12
       197   771.35606          96175   566            551            798            220            94040          1.0602059e-12
       198   783.19674          96753   566            552            795            223            94617          1.062038e-12 
       199   795.18061          97388   567            553            794            224            95250          1.0639746e-12
       200   807.57148          97975   568            553            789            229            95836          1.0658559e-12
       201   819.83749          98589   568            553            789            230            96449          1.0677934e-12
       202   832.24022          99182   568            555            787            232            97040          1.0697557e-12
       203   844.70855          99803   570            556            784            235            97658          1.0717404e-12
       204   857.25318         100392   570            557            780            239            98246          1.0735906e-12
       205   869.90276         101026   573            558            779            240            98876          1.0757257e-12
       206   882.73219         101631   573            558            777            242            99481          1.0777254e-12
       207   895.59593         102247   573            559            773            246            100096         1.0798956e-12
       208   908.51332         102844   573            559            771            248            100693         1.0819096e-12
       209   921.55426         103459   573            560            767            252            101307         1.0839812e-12
       210   934.95453         104055   574            562            764            257            101898         1.0859668e-12
       211   948.24962         104675   574            563            760            261            102517         1.0880587e-12
       212   961.6962          105290   574            565            761            261            103129         1.0901472e-12
       213   975.23582         105901   574            565            757            265            103740         1.0922951e-12
       214   988.8642          106522   574            566            756            266            104360         1.0944518e-12
       215   1002.6205         107143   575            568            752            270            104978         1.0966304e-12
       216   1016.466          107743   576            568            747            275            105577         1.0987098e-12
       217   1030.4589         108366   576            568            744            278            106200         1.1008939e-12
       218   1044.5621         108966   576            568            743            279            106800         1.1029241e-12
       219   1058.7674         109585   576            570            739            283            107417         1.1050291e-12
       220   1073.3501         110183   576            570            737            285            108015         1.1070483e-12
       221   1087.8557         110815   577            570            737            285            108646         1.1092572e-12
       222   1102.388          111406   577            571            731            291            109236         1.1112798e-12
       223   1116.9844         112042   577            572            729            293            109871         1.1135199e-12
       224   1131.7292         112650   578            573            724            298            110477         1.1154894e-12
       225   1146.5624         113299   578            573            721            301            111126         1.1178295e-12
       226   1161.5078         113872   578            573            719            304            111698         1.1197481e-12
       227   1176.5861         114521   578            574            714            309            112346         1.122197e-12 
       228   1191.8058         115102   578            575            712            311            112926         1.1240732e-12
       229   1207.0949         115745   578            575            707            316            113569         1.1264762e-12
       230   1222.7685         116348   579            575            703            320            114171         1.12858e-12  
       231   1238.3164         116978   579            576            701            322            114800         1.1309002e-12
       232   1253.9946         117605   579            577            702            323            115424         1.1332647e-12
       233   1269.8086         118203   579            578            697            330            116019         1.1358307e-12
       234   1285.812          118842   579            579            693            335            116656         1.1389117e-12
       235   1301.9137         119437   579            580            694            338            117246         1.1418456e-12
       236   1318.1108         120049   579            585            694            340            117851         1.1448994e-12
       237   1334.426          120649   580            585            693            344            118447         1.1478245e-12
       238   1350.9457         121275   580            589            693            346            119067         1.1511464e-12
       239   1367.5067         121846   581            590            693            353            119629         1.1546227e-12
       240   1384.4453         122475   581            593            696            355            120250         1.1587672e-12
       241   1401.3262         123033   582            595            698            359            120799         1.1629394e-12
       242   1418.2408         123646   582            599            702            364            121399         1.1675386e-12
       243   1435.3418         124223   583            605            709            368            121958         1.1723138e-12
       244   1452.5124         124830   584            612            713            373            122548         1.1775158e-12
       245   1469.8852         125430   585            615            714            382            123134         1.1831264e-12
       246   1487.3291         125982   586            617            715            390            123674         1.1890822e-12
       247   1504.9167         126544   588            620            717            399            124220         1.1953684e-12
       248   1522.5909         127098   592            623            720            409            124754         1.2013105e-12
       249   1540.3951         127619   597            628            725            413            125256         1.2068843e-12
       250   1558.6201         128166   602            631            726            422            125785         1.2124631e-12
       251   1576.6958         128706   603            637            727            431            126308         1.2178955e-12
       252   1594.8633         129250   610            643            725            440            126832         1.2226814e-12
       253   1613.1169         129792   615            650            718            453            127356         1.2270931e-12
       254   1631.4264         130399   617            657            716            458            127951         1.2313186e-12
       255   1649.8638         130982   619            657            708            469            128529         1.2350977e-12
       256   1668.3605         131573   623            656            704            477            129113         1.2386682e-12
       257   1686.991          132208   627            657            694            488            129742         1.2421844e-12
       258   1705.6958         132875   634            660            694            494            130393         1.2455387e-12
       259   1724.5273         133536   638            663            690            501            131044         1.2488104e-12
       260   1743.7857         134206   639            663            681            511            131712         1.2519717e-12
       261   1762.8813         134884   640            663            674            521            132386         1.2549779e-12
       262   1782.1948         135606   643            665            666            530            133102         1.2580295e-12
       263   1801.6616         136325   642            665            660            538            133820         1.2609489e-12
       264   1821.2162         137047   643            663            648            553            134540         1.2639034e-12
       265   1840.892          137761   645            663            646            556            135251         1.2667529e-12
       266   1860.7337         138510   646            664            639            565            135996         1.2698172e-12
       267   1880.8323         139222   647            664            636            569            136706         1.2726274e-12
       268   1901.0204         139978   647            663            632            577            137459         1.2757379e-12
       269   1921.3724         140699   647            663            631            578            138180         1.2786371e-12
       270   1942.3436         141436   648            664            629            580            138915         1.2816579e-12
       271   1963.0974         142172   648            664            628            582            139650         1.2846004e-12
       272   1983.975          142895   647            662            623            590            140373         1.2875987e-12
       273   2005.1119         143637   648            662            622            591            141114         1.2905883e-12
       274   2026.3459         144339   647            662            617            597            141816         1.2935278e-12
       275   2047.7311         145087   648            662            611            603            142563         1.296519e-12 
       276   2069.2388         145805   648            662            610            604            143281         1.299429e-12 
       277   2090.956          146546   648            663            606            608            144021         1.3024416e-12
       278   2112.8858         147242   647            665            601            614            144715         1.3052704e-12
       279   2134.9765         148009   649            665            598            617            145480         1.308364e-12 
       280   2157.664          148693   649            666            597            618            146163         1.3111334e-12
       281   2180.1829         149475   649            666            591            624            146945         1.3142771e-12
       282   2202.9016         150151   649            666            588            629            147619         1.3170165e-12
       283   2225.8018         150902   648            667            584            635            148368         1.3200777e-12
       284   2248.8416         151621   652            666            582            638            149083         1.3229731e-12
       285   2272.0141         152345   652            667            579            641            149806         1.3258683e-12
       286   2295.3216         153069   653            667            576            644            150529         1.3287841e-12
       287   2318.8289         153775   653            666            574            647            151235         1.3316083e-12
       288   2342.4811         154517   653            667            569            652            151976         1.3346072e-12
       289   2366.3329         155245   654            668            564            657            152702         1.3375374e-12
       290   2390.7133         155972   655            668            562            663            153424         1.3403492e-12
       291   2414.9599         156695   655            669            558            667            154146         1.3432377e-12
       292   2439.3286         157425   655            669            557            670            154874         1.3460602e-12
       293   2463.8324         158145   656            670            554            674            155591         1.3489005e-12
       294   2488.5418         158885   657            671            554            675            156328         1.351765e-12 
       295   2513.4134         159588   657            672            548            681            157030         1.3544916e-12
       296   2538.4704         160330   657            671            546            684            157772         1.3574381e-12
       297   2563.6441         161027   657            671            542            688            158469         1.3601524e-12
       298   2589.0126         161794   657            671            541            689            159236         1.3631588e-12
       299   2614.6026         162470   658            673            539            691            159909         1.3657271e-12
       300   2640.7375         163237   657            673            538            693            160676         1.368805e-12 
Loop time of 2640.74 on 16 procs for 300 steps with 163237 atoms

97.3% CPU use with 16 MPI tasks x 1 OpenMP threads

MPI task timing breakdown:
Section |  min time  |  avg time  |  max time  |%varavg| %total
---------------------------------------------------------------
Pair    | 817.4      | 899.52     | 996.73     | 178.5 | 34.06
Neigh   | 690.62     | 748.53     | 815.3      | 127.7 | 28.35
Comm    | 324.15     | 336.27     | 348.66     |  39.9 | 12.73
Output  | 5.7217     | 5.7227     | 5.7361     |   0.1 |  0.22
Modify  | 484.07     | 640.56     | 775.52     | 335.2 | 24.26
Other   |            | 10.14      |            |       |  0.38

Nlocal:        10202.3 ave       10601 max        9821 min
Histogram: 2 1 1 1 3 3 1 2 0 2
Nghost:        7902.06 ave        8206 max        7674 min
Histogram: 2 2 2 1 2 3 2 1 0 1
Neighs:         124728 ave      133452 max      116700 min
Histogram: 2 0 3 1 2 3 2 1 1 1

Total # of neighbors = 1995645
Ave neighs/atom = 12.225445
Neighbor list builds = 26373
Dangerous builds = 26073

Total wall time: 0:44:01
