LAMMPS (23 Jun 2022 - Update 4)
  using 1 OpenMP thread(s) per MPI task
package omp 0
using multi-threaded neighbor list subroutines
#-----------------------------------------------------------------------------#
#                NUFEB Simulation: Heterotrophic Biofilm Growth               #
#-----------------------------------------------------------------------------#


#-----------------------------System Settings---------------------------------#

units si                                    # using si units (m, s, kg)
atom_style      coccus                      # using nufeb coccus atom style
atom_modify     map array sort 10 0         # map array - find atoms using indices
		                            # sort every 10

boundary        pp pp ff                    # periodic boundaries in x and y
                                            # fixed boundary in z

newton          off                         # forces between local and ghost
                                            # atoms are computed in each
					     # processor without communication

processors      * * 1                       # processor grid

comm_modify     vel yes                     # communicate velocities for ghost atoms

read_data       atom_ch.in	             # read atom.in file which defines domain size
Reading data file ...
  orthogonal box = (0 0 0) to (6e-05 6e-05 6e-05)
  4 by 4 by 1 MPI processor grid
  reading atoms ...
  150 atoms
  read_data CPU = 0.020 seconds
                                            # and initial atoms


#--------------------Microbes and Functional Groups-------------------------#

group           CROSS1   type 1               # assign type 1,2 atoms to CROSS group
50 atoms in group CROSS1
group           CROSS2   type 2
50 atoms in group CROSS2
group		CHEATER  type 3
50 atoms in group CHEATER
group           dead     type 4
0 atoms in group dead
group		EPS	 type 5
0 atoms in group EPS

neighbor        5e-7 bin                   # setting neighbour skin distance and style

neigh_modify    check yes                  # rebuild neighbour list if any atom
                                           # had moved more than half the skin distance


#--------------------------Mesh Grid and Substrates--------------------------#

# defining grid sytle, substrate names, and grid size
grid_style      nufeb/chemostat 3 sub metab1 metab2 5e-6

# set diffusion boundary conditions and initial concentrations (liquid:kg/m3)
grid_modify     set sub      pp pp nd  1.8e-4
No /omp style for force computation currently active
grid_modify     set metab1   pp pp nd  1e-4
No /omp style for force computation currently active
grid_modify     set metab2   pp pp nd  1e-4
No /omp style for force computation currently active


#--------------------------Biological Processes-------------------------------#

# heterotrophs growth
fix growth_cross1 CROSS1 nufeb/growth/cross1 sub 3.5e-5 metab2 4e-3 metab1 growth 0.009 yield 0.6 decay 2.6e-6 metab1_exp 20 epsyield 0.12 epsdens 30

fix growth_cross2 CROSS2 nufeb/growth/cross2 sub 3.5e-5 metab1 4e-3 metab2 growth 0.009 yield 0.6 decay 2.6e-6 metab2_exp 20 epsyield 0.12 epsdens 30

fix growth_cheater CHEATER nufeb/growth/cheater sub 3.5e-5 metab1 1e-3 metab2 1e-3 growth 0.009 yield 0.6 decay 2.6e-6 epsyield 0.12 epsdens 30

# heterotrophs division, division diameter: 1.36e-6
fix div1 CROSS1 nufeb/division/coccus 1.36e-6 679
fix div2 CROSS2 nufeb/division/coccus 1.36e-6 2410
fix div3 CHEATER nufeb/division/coccus 1.36e-6 5293

fix death1 CROSS1 nufeb/death/diameter dead 5.43e-7
fix death2 CROSS2 nufeb/death/diameter dead 5.43e-7
fix death3 CHEATER nufeb/death/diameter dead 5.43e-7

# EPS secretion from heterotrophs
fix eps1 CROSS1 nufeb/eps_secretion 5 EPS 1.1 30 9328
fix eps2 CROSS2 nufeb/eps_secretion 5 EPS 1.1 30 14515
fix eps3 CROSS2 nufeb/eps_secretion 5 EPS 1.1 30 20854
#---------------------------Physical Processes--------------------------------#

pair_style  gran/hooke/history 1e-4 NULL 1e-5 NULL 0.0 0    # pairwise interaction
pair_coeff  * *                                             # between atoms

# pairwise interaction between z-wall and atoms
fix wall all wall/gran hooke/history 1e-3 NULL 1e-4 NULL 0 0 zplane 0.0 1e-04

fix vis all viscous 1e-5                                    # viscous damping force

fix grav all gravity 9.81 vector 0.0 0.0 -1.0

fix nve all nve/limit 1e-7                                  # NVE integration with
                                                            # maximum distance limit


#---------------------------Post-Physical Processes---------------------------#

fix coeff_sub all nufeb/diffusion_coeff sub ratio 0.8       # defining diffusion coeff in the biofilm
fix coeff_metab1 all nufeb/diffusion_coeff metab1 ratio 0.8    # region is 80% of the value in liquid
fix coeff_metab2 all nufeb/diffusion_coeff metab2 ratio 0.8

#---------------------------Chemical Processes---------------------------------#

fix diff_sub all nufeb/diffusion_reaction sub 1e-9        # diffusion reaction for updating
fix diff_metab1 all nufeb/diffusion_reaction metab1 4e-9     # distribusion of substrate concentration
fix diff_metab2 all nufeb/diffusion_reaction metab2 4e-9

#--------------------------Computations and Outputs----------------------------#

variable mass equal "mass(all)"                             # total mass
variable ncross1 equal "count(CROSS1)"                      # total # of CROSS1
variable ncross2 equal "count(CROSS2)"                      # total # of CROSS2
variable ncheater equal "count(CHEATER)"
variable ndead equal "count(dead)"
variable neps equal "count(EPS)"

shell mkdir vtk_CHEPS_ch                                            # dump vtk files to /vtk folder
dump du1 all vtk 10 vtk_CHEPS_ch/dump*.vtu id type diameter         # require build NUFEB with vtk option
dump du2 all grid/vtk 10 vtk_CHEPS_ch/dump_%_*.vti con rea den gro

#dump du3 all movie 10 movie.avi type diameter view 80 60    # dump video
#dump_modify du3 acolor 1 blue acolor 2 lightgrey framerate 10


                                                            # dump hdf5 files to /hdf5 folder
#shell mkdir hdf5                                           # require build NUFEB with hdf5 option
#dump du3 all nufeb/hdf5 10 dump.h5 id type x y z vx vy vz fx fy fz radius conc reac

thermo_style custom step cpu atoms v_ncross1 v_ncross2 v_ncheater v_ndead v_neps v_mass     # screen and log outputs
thermo 1
thermo_modify   lost ignore

#-----------------------------------Run----------------------------------------#

# issue run command, define timesteps for physical (pairdt) and chemical (diffdt) processes
run_style nufeb diffdt 1e-4 difftol 1e-6 pairdt 1e-2 pairtol 1 pairmax 1000 diffmax 5000

timestep 12000                                               # define biological timesteps (1000s)

run 300                                                    # growing biofilm for 900x1000s
Generated 0 of 6 mixed pair_coeff terms from geometric mixing rule
Last active /omp style is pair_style gran/hooke/history/omp
Neighbor list info ...
  update every 1 steps, delay 10 steps, check yes
  max neighbors/atom: 2000, page size: 100000
  master list distance cutoff = 2.49e-06
  ghost atom cutoff = 2.49e-06
  binsize = 1.245e-06, bins = 49 49 49
  1 neighbor lists, perpetual/occasional/extra = 1 0 0
  (1) pair gran/hooke/history/omp, perpetual
      attributes: half, newton off, size, history, omp
      pair build: half/size/bin/newtoff/omp
      stencil: full/bin/3d
      bin: standard
Per MPI rank memory allocation (min/avg/max) = 11.02 | 11.02 | 11.02 Mbytes
   Step          CPU          Atoms      v_ncross1      v_ncross2      v_ncheater      v_ndead         v_neps         v_mass    
         0   0                    150   50             50             50             0              0              1.3295396e-13
         1   0.39175301           489   90             85             83             0              231            1.6436454e-13
         2   0.7639084            902   120            127            124            0              531            1.8138121e-13
         3   1.0571158           1236   131            142            140            0              823            1.9560044e-13
         4   1.3415915           1571   140            151            149            0              1131           2.0879003e-13
         5   1.4822306           1897   144            158            158            0              1437           2.2142916e-13
         6   1.620962            2223   148            167            160            0              1748           2.3372493e-13
         7   1.7630733           2577   158            176            166            0              2077           2.4579601e-13
         8   1.8678116           2941   169            187            171            0              2414           2.5744021e-13
         9   1.9874379           3319   176            199            180            0              2764           2.6892396e-13
        10   2.1518153           3696   177            207            189            0              3123           2.8020579e-13
        11   2.2850187           4074   181            217            193            0              3483           2.9116989e-13
        12   2.4001039           4464   189            222            203            0              3850           3.0193457e-13
        13   2.5196938           4856   194            229            205            0              4228           3.125706e-13 
        14   2.6394224           5250   201            234            210            0              4605           3.230076e-13 
        15   2.7575094           5660   211            237            218            0              4994           3.3334305e-13
        16   2.8721329           6058   217            241            219            0              5381           3.4336962e-13
        17   2.9655991           6483   225            244            229            0              5785           3.5331436e-13
        18   3.049943            6880   229            246            232            0              6173           3.6302246e-13
        19   3.1388792           7308   234            250            241            0              6583           3.7266865e-13
        20   3.2999617           7712   236            252            257            0              6967           3.8204387e-13
        21   3.3898522           8123   243            258            265            0              7357           3.911642e-13 
        22   3.4988902           8528   244            267            270            0              7747           4.0012718e-13
        23   3.6208952           8928   244            269            278            0              8137           4.0904092e-13
        24   3.7024803           9319   246            272            285            0              8516           4.1780316e-13
        25   3.7862062           9734   258            278            291            0              8907           4.2634647e-13
        26   3.8784343          10147   263            280            302            0              9302           4.3483391e-13
        27   3.9909245          10564   269            283            309            0              9703           4.4320536e-13
        28   4.1154977          10992   275            290            314            0              10113          4.5150566e-13
        29   4.2251338          11409   281            298            318            0              10512          4.5956296e-13
        30   4.3868539          11832   285            301            324            0              10922          4.6761745e-13
        31   4.5071501          12279   290            305            329            0              11355          4.7555519e-13
        32   4.6461506          12663   292            306            337            0              11728          4.831105e-13 
        33   4.8125942          13090   293            308            343            0              12146          4.9062588e-13
        34   5.0504598          13524   295            314            351            0              12564          4.9787692e-13
        35   5.2540251          13950   301            317            358            0              12974          5.0467976e-13
        36   5.5655496          14374   306            319            365            0              13384          5.1126509e-13
        37   5.9711799          14799   309            321            367            0              13802          5.1778611e-13
        38   6.7709576          15236   312            326            372            0              14226          5.2416478e-13
        39   7.6019587          15643   313            326            379            0              14625          5.3039064e-13
        40   8.458877           16071   316            328            383            0              15044          5.36514e-13  
        41   9.2856753          16486   317            331            392            0              15446          5.4251017e-13
        42   10.155459          16924   320            334            399            0              15871          5.4858714e-13
        43   11.03552           17340   322            334            404            0              16280          5.5422494e-13
        44   11.899649          17755   326            336            406            0              16687          5.5956393e-13
        45   12.791661          18183   327            338            409            0              17109          5.6506883e-13
        46   13.689865          18605   330            342            413            0              17520          5.7031746e-13
        47   14.605251          19025   333            342            414            0              17936          5.7554464e-13
        48   15.579799          19470   338            346            418            0              18368          5.8078978e-13
        49   16.552068          19895   341            349            419            0              18786          5.8563043e-13
        50   57.047687          20323   344            352            422            0              19205          5.9039463e-13
        51   58.051526          20776   348            356            426            0              19646          5.9508566e-13
        52   59.075038          21215   350            357            429            0              20079          5.9966985e-13
        53   60.133977          21649   354            360            433            0              20502          6.0408346e-13
        54   61.226722          22106   356            361            435            0              20954          6.0856556e-13
        55   62.333225          22522   358            364            436            0              21364          6.1264386e-13
        56   63.481737          22969   361            368            438            0              21802          6.1687937e-13
        57   64.640132          23414   365            369            440            0              22240          6.2083385e-13
        58   65.859439          23871   368            372            440            0              22691          6.2483633e-13
        59   67.074997          24322   372            372            443            0              23135          6.2865606e-13
        60   81.246921          24768   375            373            445            0              23575          6.3254842e-13
        61   82.525194          25227   378            375            446            0              24028          6.3645969e-13
        62   83.820937          25680   381            376            448            0              24475          6.4019583e-13
        63   85.133701          26146   383            376            453            0              24934          6.439353e-13 
        64   86.470932          26574   385            377            455            0              25357          6.4749491e-13
        65   87.843408          27046   387            377            460            0              25822          6.5124088e-13
        66   89.243266          27457   388            378            462            0              26229          6.5462138e-13
        67   90.688261          27939   388            380            465            0              26706          6.5831313e-13
        68   92.138483          28362   388            383            467            0              27124          6.6157946e-13
        69   93.624127          28847   390            386            473            0              27598          6.6515653e-13
        70   119.26999          29292   391            387            474            0              28040          6.6851331e-13
        71   120.81196          29775   398            390            476            0              28511          6.7194944e-13
        72   122.38508          30206   398            391            478            0              28939          6.7510521e-13
        73   123.99242          30678   399            391            480            0              29408          6.7847798e-13
        74   125.62597          31125   401            392            481            0              29851          6.8166053e-13
        75   127.32923          31587   401            395            484            0              30307          6.8488826e-13
        76   129.0304           32051   403            397            487            0              30764          6.8800486e-13
        77   130.75642          32505   404            398            492            0              31211          6.9104355e-13
        78   132.52764          32974   407            401            494            0              31672          6.9406285e-13
        79   134.3702           33436   407            402            496            0              32131          6.9711329e-13
        80   136.33644          33890   409            402            498            0              32581          7.0005568e-13
        81   138.22348          34369   409            403            503            0              33054          7.0325475e-13
        82   140.15226          34819   409            403            506            0              33501          7.0623106e-13
        83   142.1278           35291   410            406            509            0              33966          7.0938346e-13
        84   144.13356          35760   411            409            510            0              34430          7.1235036e-13
        85   146.17841          36248   413            410            511            0              34914          7.1550304e-13
        86   148.28406          36678   416            410            513            0              35339          7.183155e-13 
        87   150.44857          37183   417            410            517            0              35839          7.2183842e-13
        88   152.66603          37612   418            410            522            0              36262          7.2516238e-13
        89   154.94351          38109   418            411            530            0              36750          7.2907231e-13
        90   157.4202           38538   419            414            532            0              37173          7.3288117e-13
        91   159.81463          39019   420            414            538            0              37647          7.3718528e-13
        92   162.20767          39480   423            417            548            0              38092          7.4138907e-13
        93   164.70402          39943   424            417            554            0              38548          7.4594973e-13
        94   167.21929          40409   425            417            561            0              39006          7.5084093e-13
        95   169.75092          40862   426            420            575            0              39441          7.5591901e-13
        96   172.389            41331   426            420            586            0              39899          7.6131856e-13
        97   175.02728          41769   426            420            594            0              40329          7.6680409e-13
        98   177.68349          42235   427            422            607            0              40779          7.7272184e-13
        99   180.44039          42700   428            423            622            0              41227          7.7889826e-13
       100   183.32275          43145   429            425            634            0              41657          7.8513309e-13
       101   186.18856          43603   431            427            654            0              42091          7.916334e-13 
       102   189.04752          44037   432            427            668            0              42510          7.9843626e-13
       103   191.91163          44473   433            429            683            0              42928          8.0523246e-13
       104   194.88374          44911   435            433            696            0              43347          8.1224754e-13
       105   197.93848          45354   436            435            708            0              43775          8.194979e-13 
       106   200.97203          45793   437            438            727            0              44191          8.2691607e-13
       107   204.04145          46224   439            441            751            0              44593          8.3395037e-13
       108   207.1638           46668   442            443            771            1              45011          8.4111803e-13
       109   210.35669          47067   443            445            791            1              45387          8.4812698e-13
       110   213.66919          47531   446            448            807            1              45829          8.5505525e-13
       111   216.98827          47951   447            452            817            1              46234          8.6175655e-13
       112   220.3103           48379   450            454            824            1              46650          8.6839109e-13
       113   223.69677          48828   453            457            836            1              47081          8.7486236e-13
       114   227.13198          49246   463            459            854            1              47469          8.811385e-13 
       115   230.573            49717   467            465            869            1              47915          8.8717627e-13
       116   234.11156          50143   470            467            879            1              48326          8.9259599e-13
       117   237.66223          50620   476            474            893            3              48774          8.9788856e-13
       118   241.29197          51079   482            477            899            5              49216          9.02836e-13  
       119   244.98537          51537   485            481            901            11             49659          9.0734718e-13
       120   248.8167           51966   485            483            902            14             50082          9.1155662e-13
       121   252.51404          52418   491            486            902            16             50523          9.1554758e-13
       122   256.31475          52915   493            492            905            19             51006          9.1928728e-13
       123   260.16623          53421   499            495            908            25             51494          9.2262547e-13
       124   264.04413          53905   504            496            910            29             51966          9.2587781e-13
       125   267.99821          54424   505            498            910            33             52478          9.2899325e-13
       126   272.03979          54968   506            499            906            40             53017          9.318331e-13 
       127   276.17483          55472   506            503            902            44             53517          9.3419547e-13
       128   280.27728          56005   507            503            898            50             54047          9.3634507e-13
       129   284.47466          56545   509            504            896            53             54583          9.3837333e-13
       130   289.14258          57119   511            505            893            58             55152          9.4010979e-13
       131   293.43665          57673   514            506            890            61             55702          9.4163095e-13
       132   297.78884          58251   514            506            889            62             56280          9.4315607e-13
       133   302.20781          58818   514            508            887            65             56844          9.4448545e-13
       134   306.67681          59407   514            509            879            73             57432          9.4589558e-13
       135   311.23185          59981   514            509            875            78             58005          9.4721096e-13
       136   315.88145          60592   516            512            871            82             58611          9.4867768e-13
       137   320.59784          61156   516            514            868            85             59173          9.499087e-13 
       138   325.40961          61766   516            516            864            89             59781          9.5133409e-13
       139   330.29275          62356   517            518            862            91             60368          9.5270435e-13
       140   335.40739          62938   517            518            858            95             60950          9.5409163e-13
       141   340.48423          63521   519            521            856            97             61528          9.5540216e-13
       142   345.65404          64119   519            521            856            98             62125          9.5691298e-13
       143   350.89801          64717   522            521            854            100            62720          9.582822e-13 
       144   356.23713          65292   523            522            852            102            63293          9.5965593e-13
       145   361.66854          65871   526            523            850            104            63868          9.6107398e-13
       146   367.18785          66470   526            523            845            109            64467          9.6257366e-13
       147   372.78308          67049   528            524            843            112            65042          9.6401988e-13
       148   378.45482          67640   529            525            841            114            65631          9.654916e-13 
       149   384.23602          68241   530            525            840            115            66231          9.6704849e-13
       150   390.26849          68830   533            525            836            119            66817          9.6854503e-13
       151   396.21306          69405   534            526            835            120            67390          9.7001369e-13
       152   402.25291          70002   534            527            833            122            67986          9.7158018e-13
       153   408.38337          70613   534            529            831            126            68593          9.7325758e-13
       154   414.59324          71164   535            529            825            132            69143          9.7472434e-13
       155   420.88753          71758   536            529            825            133            69735          9.7646081e-13
       156   427.2549           72355   537            530            823            135            70330          9.7811111e-13
       157   433.75275          72939   538            531            822            137            70911          9.7978035e-13
       158   440.31169          73539   540            531            821            138            71509          9.8155534e-13
       159   446.98952          74121   540            533            821            140            72087          9.8322461e-13
       160   453.90326          74714   542            533            821            140            72678          9.8498272e-13
       161   460.71802          75305   542            535            819            142            73267          9.8663909e-13
       162   467.63713          75907   542            536            816            145            73868          9.8851639e-13
       163   474.63314          76485   544            536            815            146            74444          9.9019127e-13
       164   481.71934          77111   544            538            814            147            75068          9.9210401e-13
       165   488.86386          77674   545            539            812            149            75629          9.9375799e-13
       166   496.11355          78290   546            540            807            154            76243          9.9565114e-13
       167   503.45825          78877   548            542            805            157            76825          9.9736054e-13
       168   510.87413          79471   549            542            801            161            77418          9.9917638e-13
       169   518.39039          80073   549            542            800            162            78020          1.0010422e-12
       170   526.19436          80666   549            542            798            164            78613          1.0029094e-12
       171   533.87678          81259   550            542            792            170            79205          1.004771e-12 
       172   541.68124          81854   550            542            791            172            79799          1.006613e-12 
       173   549.5637           82449   550            542            789            174            80394          1.0084992e-12
       174   557.50121          83014   550            543            787            176            80958          1.0103131e-12
       175   565.54075          83636   550            543            785            178            81580          1.0123062e-12
       176   573.62979          84220   550            543            785            178            82164          1.0141678e-12
       177   581.82161          84814   551            545            782            181            82755          1.0160983e-12
       178   590.1128           85407   551            546            780            183            83347          1.0180133e-12
       179   598.48589          85998   551            547            777            186            83937          1.0199796e-12
       180   607.13012          86586   551            547            774            189            84525          1.0219008e-12
       181   615.62503          87202   552            547            771            192            85140          1.0239655e-12
       182   624.2695           87783   552            547            767            196            85721          1.0258584e-12
       183   632.98016          88383   553            550            767            197            86316          1.0278613e-12
       184   641.83839          88985   553            551            765            199            86917          1.0298624e-12
       185   650.75466          89587   555            554            764            201            87513          1.0318548e-12
       186   659.75857          90194   558            554            760            205            88117          1.0339089e-12
       187   668.88163          90795   558            554            759            207            88717          1.0358738e-12
       188   678.07478          91381   558            554            757            209            89303          1.0379032e-12
       189   687.35097          91981   558            555            755            211            89902          1.0398797e-12
       190   696.96078          92599   558            556            752            214            90519          1.0420227e-12
       191   706.4382           93176   558            556            749            217            91096          1.0439524e-12
       192   715.98491          93789   558            556            746            220            91709          1.0461453e-12
       193   725.65013          94370   559            556            746            220            92289          1.0481036e-12
       194   735.46386          94989   560            556            741            225            92907          1.0503018e-12
       195   745.28761          95571   560            556            740            226            93489          1.0523688e-12
       196   755.24077          96179   561            556            736            231            94095          1.0545052e-12
       197   765.23133          96768   562            557            732            235            94682          1.056538e-12 
       198   775.29776          97379   563            558            731            238            95289          1.0587142e-12
       199   785.425            97976   563            558            728            241            95886          1.0608078e-12
       200   795.85143          98572   563            558            724            246            96481          1.0629576e-12
       201   806.18895          99172   563            558            720            250            97081          1.0651621e-12
       202   816.56676          99793   563            559            716            254            97701          1.0674275e-12
       203   827.02337         100376   563            559            710            260            98284          1.0695632e-12
       204   837.56211         100982   563            559            707            263            98890          1.0717679e-12
       205   848.17447         101557   564            559            704            266            99464          1.0738872e-12
       206   858.8762          102179   563            561            700            272            100083         1.076187e-12 
       207   869.78783         102782   564            561            698            274            100685         1.0784476e-12
       208   880.65044         103391   565            561            697            275            101293         1.0807341e-12
       209   891.62012         103987   565            561            695            277            101889         1.082969e-12 
       210   903.02427         104579   565            561            692            281            102480         1.0851781e-12
       211   914.15481         105190   565            561            692            281            103091         1.0874398e-12
       212   925.57366         105774   565            561            689            284            103675         1.0896263e-12
       213   936.92545         106396   566            561            686            287            104296         1.0919535e-12
       214   948.48206         106992   566            561            686            287            104892         1.0942055e-12
       215   959.98587         107615   566            561            685            288            105515         1.0965436e-12
       216   971.61296         108192   566            561            683            290            106092         1.0987765e-12
       217   983.37822         108812   568            561            681            293            106709         1.1010799e-12
       218   995.36168         109398   568            561            679            295            107295         1.1034126e-12
       219   1007.4997         110009   568            561            676            298            107906         1.1058962e-12
       220   1019.7652         110608   569            561            670            304            108504         1.1084029e-12
       221   1031.9176         111207   569            561            667            309            109101         1.1109052e-12
       222   1044.2529         111820   571            561            667            310            109711         1.1133659e-12
       223   1056.6945         112411   571            561            662            317            110300         1.1159158e-12
       224   1069.1773         113018   572            561            659            322            110904         1.1185009e-12
       225   1081.7318         113635   574            561            654            327            111519         1.1212007e-12
       226   1094.414          114224   575            561            654            330            112104         1.1238054e-12
       227   1107.1469         114856   575            562            652            334            112733         1.1267416e-12
       228   1119.9161         115454   576            564            647            340            113327         1.1295376e-12
       229   1132.8151         116065   576            564            647            342            113936         1.1324567e-12
       230   1146.1485         116657   576            564            646            344            114527         1.1354555e-12
       231   1159.2671         117281   576            564            648            344            115149         1.1388289e-12
       232   1172.5079         117867   576            564            647            350            115730         1.1422098e-12
       233   1185.8055         118489   576            565            648            353            116347         1.146159e-12 
       234   1199.1597         119064   576            566            651            356            116915         1.1501009e-12
       235   1212.5932         119683   576            568            655            358            117526         1.1544699e-12
       236   1226.1998         120289   576            568            662            364            118119         1.1590466e-12
       237   1239.9018         120882   575            568            668            366            118705         1.1640246e-12
       238   1253.693          121490   574            569            672            372            119303         1.1695e-12   
       239   1267.5174         122076   574            568            682            379            119873         1.1753245e-12
       240   1282.0153         122669   574            569            690            380            120456         1.1814072e-12
       241   1296.116          123268   575            570            705            382            121036         1.1879616e-12
       242   1310.3163         123823   575            571            716            385            121576         1.1948037e-12
       243   1324.6006         124416   576            571            725            391            122153         1.2019293e-12
       244   1338.9584         124956   577            574            731            398            122676         1.209301e-12 
       245   1353.4272         125525   577            575            746            404            123223         1.2169638e-12
       246   1367.9488         126083   579            582            758            407            123757         1.2242557e-12
       247   1382.6729         126631   580            588            768            410            124285         1.2313143e-12
       248   1397.4355         127179   585            594            783            413            124804         1.2379382e-12
       249   1412.3685         127666   587            598            781            424            125276         1.2441878e-12
       250   1427.5877         128186   590            603            780            432            125781         1.2496148e-12
       251   1442.6209         128698   594            608            781            440            126275         1.2548467e-12
       252   1457.7208         129224   599            612            776            452            126785         1.2594417e-12
       253   1472.9037         129757   603            613            770            460            127311         1.2638931e-12
       254   1488.0722         130315   606            616            769            468            127856         1.2679734e-12
       255   1503.3671         130900   613            618            768            476            128425         1.2717144e-12
       256   1518.6772         131489   614            617            761            486            129011         1.2751577e-12
       257   1534.0281         132101   616            619            752            500            129614         1.2783678e-12
       258   1549.4705         132717   616            621            747            508            130225         1.281418e-12 
       259   1564.9695         133339   617            620            740            519            130843         1.2842915e-12
       260   1580.9797         134009   619            621            733            526            131510         1.2871283e-12
       261   1596.7628         134680   621            621            725            537            132176         1.2897173e-12
       262   1612.6686         135380   621            618            722            544            132875         1.2924695e-12
       263   1628.7758         136045   622            619            718            549            133537         1.2950459e-12
       264   1645.0572         136749   623            620            715            553            134238         1.2976638e-12
       265   1661.4291         137459   622            620            710            560            134947         1.3003298e-12
       266   1677.8746         138155   623            620            704            566            135642         1.302992e-12 
       267   1694.4071         138856   623            621            702            568            136342         1.3056429e-12
       268   1711.1714         139555   622            619            700            573            137041         1.3083479e-12
       269   1728.0225         140257   621            619            693            581            137743         1.311062e-12 
       270   1745.3328         140975   621            620            688            586            138460         1.3138544e-12
       271   1762.4467         141642   622            620            680            594            139126         1.3164407e-12
       272   1779.6647         142369   622            622            679            596            139850         1.3192645e-12
       273   1796.96           143063   623            622            676            599            140543         1.3219164e-12
       274   1814.3949         143769   624            622            675            600            141248         1.3246911e-12
       275   1831.9715         144458   625            622            669            607            141935         1.3273082e-12
       276   1849.622          145166   626            622            667            609            142642         1.3301237e-12
       277   1867.3711         145848   627            622            666            611            143322         1.33277e-12  
       278   1885.3343         146562   627            622            665            612            144036         1.3354663e-12
       279   1903.3909         147249   627            622            662            616            144722         1.3381186e-12
       280   1921.8906         147945   627            623            658            620            145417         1.3407337e-12
       281   1940.1346         148632   627            623            657            621            146104         1.3434454e-12
       282   1958.5619         149312   627            623            657            622            146783         1.3460642e-12
       283   1977.1938         150016   627            623            657            624            147485         1.348881e-12 
       284   1995.9358         150702   627            623            656            625            148171         1.3514244e-12
       285   2014.8301         151388   628            623            654            628            148855         1.3541003e-12
       286   2033.8555         152086   628            625            654            629            149550         1.3567434e-12
       287   2053.0463         152764   629            625            651            633            150226         1.3593348e-12
       288   2072.359          153479   629            626            650            635            150939         1.362033e-12 
       289   2091.7934         154173   630            625            650            636            151632         1.3646534e-12
       290   2111.6473         154867   631            626            650            636            152324         1.3672869e-12
       291   2131.2288         155574   632            627            649            637            153029         1.3699372e-12
       292   2150.9925         156246   633            627            647            639            153700         1.3724624e-12
       293   2170.8253         156953   634            628            647            639            154405         1.3751779e-12
       294   2190.7415         157644   634            629            646            640            155095         1.3777816e-12
       295   2210.8125         158348   634            629            645            641            155799         1.3804833e-12
       296   2231.0401         159015   634            628            645            644            156464         1.3829784e-12
       297   2251.391          159707   634            629            644            645            157155         1.3856315e-12
       298   2271.8842         160417   634            629            645            646            157863         1.3882963e-12
       299   2292.4653         161090   634            629            643            648            158536         1.3909163e-12
       300   2313.5667         161797   634            630            642            650            159241         1.393615e-12 
Loop time of 2313.57 on 16 procs for 300 steps with 161797 atoms

96.6% CPU use with 16 MPI tasks x 1 OpenMP threads

MPI task timing breakdown:
Section |  min time  |  avg time  |  max time  |%varavg| %total
---------------------------------------------------------------
Pair    | 663.89     | 715.6      | 789.92     | 128.0 | 30.93
Neigh   | 684.41     | 741.18     | 827        | 137.8 | 32.04
Comm    | 195.83     | 208.23     | 216.46     |  39.7 |  9.00
Output  | 82.238     | 82.238     | 82.239     |   0.0 |  3.55
Modify  | 406.31     | 559.41     | 664.94     | 296.9 | 24.18
Other   |            | 6.902      |            |       |  0.30

Nlocal:        10112.3 ave       10620 max        9752 min
Histogram: 2 1 2 1 4 4 1 0 0 1
Nghost:        7730.62 ave        7917 max        7587 min
Histogram: 1 3 1 3 2 1 2 1 1 1
Neighs:         122891 ave      132355 max      115611 min
Histogram: 2 1 1 3 3 3 1 1 0 1

Total # of neighbors = 1966262
Ave neighs/atom = 12.152648
Neighbor list builds = 26502
Dangerous builds = 26202

Total wall time: 0:38:34
