LAMMPS (23 Jun 2022 - Update 4)
  using 1 OpenMP thread(s) per MPI task
package omp 0
using multi-threaded neighbor list subroutines
#-----------------------------------------------------------------------------#
#                NUFEB Simulation: Heterotrophic Biofilm Growth               #
#-----------------------------------------------------------------------------#


#-----------------------------System Settings---------------------------------#

units si                                    # using si units (m, s, kg)
atom_style      coccus                      # using nufeb coccus atom style
atom_modify     map array sort 10 0         # map array - find atoms using indices
		                            # sort every 10

boundary        pp pp ff                    # periodic boundaries in x and y
                                            # fixed boundary in z

newton          off                         # forces between local and ghost
                                            # atoms are computed in each
					     # processor without communication

processors      * * 1                       # processor grid

comm_modify     vel yes                     # communicate velocities for ghost atoms

read_data       atom_ch.in	             # read atom.in file which defines domain size
Reading data file ...
  orthogonal box = (0 0 0) to (6e-05 6e-05 6e-05)
  4 by 4 by 1 MPI processor grid
  reading atoms ...
  150 atoms
  read_data CPU = 0.032 seconds
                                            # and initial atoms


#--------------------Microbes and Functional Groups-------------------------#

group           CROSS1   type 1               # assign type 1,2 atoms to CROSS group
50 atoms in group CROSS1
group           CROSS2   type 2
50 atoms in group CROSS2
group		CHEATER  type 3
50 atoms in group CHEATER
group           dead     type 4
0 atoms in group dead
group		EPS	 type 5
0 atoms in group EPS

neighbor        5e-7 bin                   # setting neighbour skin distance and style

neigh_modify    check yes                  # rebuild neighbour list if any atom
                                           # had moved more than half the skin distance


#--------------------------Mesh Grid and Substrates--------------------------#

# defining grid sytle, substrate names, and grid size
grid_style      nufeb/chemostat 3 sub metab1 metab2 5e-6

# set diffusion boundary conditions and initial concentrations (liquid:kg/m3)
grid_modify     set sub      pp pp nd  1.8e-4
No /omp style for force computation currently active
grid_modify     set metab1   pp pp nd  1e-4
No /omp style for force computation currently active
grid_modify     set metab2   pp pp nd  1e-4
No /omp style for force computation currently active


#--------------------------Biological Processes-------------------------------#

# heterotrophs growth
fix growth_cross1 CROSS1 nufeb/growth/cross1 sub 3.5e-5 metab2 4e-3 metab1 growth 0.009 yield 0.6 decay 2.6e-6 metab1_exp 20 epsyield 0.12 epsdens 30

fix growth_cross2 CROSS2 nufeb/growth/cross2 sub 3.5e-5 metab1 4e-3 metab2 growth 0.009 yield 0.6 decay 2.6e-6 metab2_exp 20 epsyield 0.12 epsdens 30

fix growth_cheater CHEATER nufeb/growth/cheater sub 3.5e-5 metab1 1e-3 metab2 1e-3 growth 0.009 yield 0.6 decay 2.6e-6 epsyield 0.12 epsdens 30

# heterotrophs division, division diameter: 1.36e-6
fix div1 CROSS1 nufeb/division/coccus 1.36e-6 167
fix div2 CROSS2 nufeb/division/coccus 1.36e-6 362
fix div3 CHEATER nufeb/division/coccus 1.36e-6 685

fix death1 CROSS1 nufeb/death/diameter dead 5.43e-7
fix death2 CROSS2 nufeb/death/diameter dead 5.43e-7
fix death3 CHEATER nufeb/death/diameter dead 5.43e-7

# EPS secretion from heterotrophs
fix eps1 CROSS1 nufeb/eps_secretion 5 EPS 1.1 30 1136
fix eps2 CROSS2 nufeb/eps_secretion 5 EPS 1.1 30 1715
fix eps3 CROSS2 nufeb/eps_secretion 5 EPS 1.1 30 2422
#---------------------------Physical Processes--------------------------------#

pair_style  gran/hooke/history 1e-4 NULL 1e-5 NULL 0.0 0    # pairwise interaction
pair_coeff  * *                                             # between atoms

# pairwise interaction between z-wall and atoms
fix wall all wall/gran hooke/history 1e-3 NULL 1e-4 NULL 0 0 zplane 0.0 1e-04

fix vis all viscous 1e-5                                    # viscous damping force

fix grav all gravity 9.81 vector 0.0 0.0 -1.0

fix nve all nve/limit 1e-7                                  # NVE integration with
                                                            # maximum distance limit


#---------------------------Post-Physical Processes---------------------------#

fix coeff_sub all nufeb/diffusion_coeff sub ratio 0.8       # defining diffusion coeff in the biofilm
fix coeff_metab1 all nufeb/diffusion_coeff metab1 ratio 0.8    # region is 80% of the value in liquid
fix coeff_metab2 all nufeb/diffusion_coeff metab2 ratio 0.8

#---------------------------Chemical Processes---------------------------------#

fix diff_sub all nufeb/diffusion_reaction sub 1e-9        # diffusion reaction for updating
fix diff_metab1 all nufeb/diffusion_reaction metab1 4e-9     # distribusion of substrate concentration
fix diff_metab2 all nufeb/diffusion_reaction metab2 4e-9

#--------------------------Computations and Outputs----------------------------#

variable mass equal "mass(all)"                             # total mass
variable ncross1 equal "count(CROSS1)"                      # total # of CROSS1
variable ncross2 equal "count(CROSS2)"                      # total # of CROSS2
variable ncheater equal "count(CHEATER)"
variable ndead equal "count(dead)"
variable neps equal "count(EPS)"

shell mkdir vtk_CHEPS_ch                                            # dump vtk files to /vtk folder
dump du1 all vtk 10 vtk_CHEPS_ch/dump*.vtu id type diameter         # require build NUFEB with vtk option
dump du2 all grid/vtk 10 vtk_CHEPS_ch/dump_%_*.vti con rea den gro

#dump du3 all movie 10 movie.avi type diameter view 80 60    # dump video
#dump_modify du3 acolor 1 blue acolor 2 lightgrey framerate 10


                                                            # dump hdf5 files to /hdf5 folder
#shell mkdir hdf5                                           # require build NUFEB with hdf5 option
#dump du3 all nufeb/hdf5 10 dump.h5 id type x y z vx vy vz fx fy fz radius conc reac

thermo_style custom step cpu atoms v_ncross1 v_ncross2 v_ncheater v_ndead v_neps v_mass     # screen and log outputs
thermo 1
thermo_modify   lost ignore

#-----------------------------------Run----------------------------------------#

# issue run command, define timesteps for physical (pairdt) and chemical (diffdt) processes
run_style nufeb diffdt 1e-4 difftol 1e-6 pairdt 1e-2 pairtol 1 pairmax 1000 diffmax 5000

timestep 12000                                               # define biological timesteps (1000s)

run 300                                                    # growing biofilm for 900x1000s
Generated 0 of 6 mixed pair_coeff terms from geometric mixing rule
Last active /omp style is pair_style gran/hooke/history/omp
Neighbor list info ...
  update every 1 steps, delay 10 steps, check yes
  max neighbors/atom: 2000, page size: 100000
  master list distance cutoff = 2.49e-06
  ghost atom cutoff = 2.49e-06
  binsize = 1.245e-06, bins = 49 49 49
  1 neighbor lists, perpetual/occasional/extra = 1 0 0
  (1) pair gran/hooke/history/omp, perpetual
      attributes: half, newton off, size, history, omp
      pair build: half/size/bin/newtoff/omp
      stencil: full/bin/3d
      bin: standard
Per MPI rank memory allocation (min/avg/max) = 11.02 | 11.02 | 11.02 Mbytes
   Step          CPU          Atoms      v_ncross1      v_ncross2      v_ncheater      v_ndead         v_neps         v_mass    
         0   0                    150   50             50             50             0              0              1.3295396e-13
         1   0.38755564           493   90             85             83             0              235            1.6428365e-13
         2   0.76105877           902   118            123            125            0              536            1.8150184e-13
         3   1.0659366           1244   130            144            138            0              832            1.955463e-13 
         4   1.3523352           1573   134            155            147            0              1137           2.0867511e-13
         5   1.5432788           1910   142            164            152            0              1452           2.2127453e-13
         6   1.6758796           2256   147            174            159            0              1776           2.3357638e-13
         7   1.8199555           2612   152            181            167            0              2112           2.4560057e-13
         8   1.9798779           2967   165            187            171            0              2444           2.5734369e-13
         9   2.0821312           3354   174            194            177            0              2809           2.6895394e-13
        10   2.233371            3717   178            205            182            0              3152           2.8015019e-13
        11   2.3564294           4111   183            212            191            0              3525           2.9124027e-13
        12   2.5018057           4498   191            218            201            0              3888           3.020567e-13 
        13   2.5908382           4900   198            222            205            0              4275           3.1268505e-13
        14   2.7034011           5271   202            223            213            0              4633           3.230042e-13 
        15   2.8166525           5700   209            232            216            0              5043           3.333691e-13 
        16   2.8991036           6107   213            239            221            0              5434           3.4339818e-13
        17   3.030975            6518   222            244            228            0              5824           3.5322994e-13
        18   3.1205665           6916   227            248            238            0              6203           3.6281257e-13
        19   3.266646            7359   232            254            245            0              6628           3.72332e-13  
        20   3.4296886           7756   242            259            249            0              7006           3.8140891e-13
        21   3.5105122           8178   247            263            259            0              7409           3.9043125e-13
        22   3.6138402           8588   250            266            263            0              7809           3.9925486e-13
        23   3.7123874           8998   254            271            274            0              8199           4.0776716e-13
        24   3.8084922           9431   260            275            279            0              8617           4.1615206e-13
        25   3.8896183           9826   263            279            283            0              9001           4.2420232e-13
        26   4.0157183          10245   265            285            289            0              9406           4.3222232e-13
        27   4.1063972          10675   267            290            296            0              9822           4.4015282e-13
        28   4.2262448          11073   272            293            302            0              10206          4.4768901e-13
        29   4.3244967          11472   276            296            309            0              10591          4.5507878e-13
        30   17.373752          11908   280            300            314            0              11014          4.6249645e-13
        31   17.527459          12322   285            305            321            0              11411          4.6965641e-13
        32   17.641051          12743   288            309            326            0              11820          4.7676368e-13
        33   17.814999          13176   295            310            333            0              12238          4.8374279e-13
        34   17.984513          13581   298            312            336            0              12635          4.9050424e-13
        35   18.223874          13979   301            313            341            0              13024          4.9712932e-13
        36   18.460879          14426   304            317            344            0              13461          5.0389165e-13
        37   18.702284          14833   308            320            348            0              13857          5.1029774e-13
        38   19.186059          15244   311            324            351            0              14258          5.1652719e-13
        39   20.004132          15685   314            326            354            0              14691          5.2263497e-13
        40   20.874074          16094   317            327            360            0              15090          5.283545e-13 
        41   21.753097          16522   320            329            361            0              15512          5.340329e-13 
        42   22.600811          16936   322            330            363            0              15921          5.3946276e-13
        43   23.463519          17376   325            332            368            0              16351          5.4488541e-13
        44   24.34093           17792   330            335            371            0              16756          5.5011113e-13
        45   25.246164          18228   335            338            374            0              17181          5.5533267e-13
        46   26.162094          18662   337            341            383            0              17601          5.6044265e-13
        47   27.10074           19092   338            344            387            0              18023          5.6534692e-13
        48   28.073921          19522   344            345            389            0              18444          5.7021661e-13
        49   29.057831          19956   348            346            391            0              18871          5.748974e-13 
        50   41.214333          20391   351            347            397            0              19296          5.795338e-13 
        51   42.247491          20832   352            349            400            0              19731          5.8412748e-13
        52   43.302791          21257   354            353            401            0              20149          5.8837423e-13
        53   44.380953          21715   357            355            403            0              20600          5.9266522e-13
        54   45.485374          22168   359            360            405            0              21044          5.9676268e-13
        55   46.616298          22598   359            362            407            0              21470          6.0077029e-13
        56   47.77325           23059   361            365            412            0              21921          6.0485029e-13
        57   48.933034          23496   362            367            415            0              22352          6.0875938e-13
        58   50.151774          23941   362            367            417            0              22795          6.1272277e-13
        59   51.375777          24385   366            370            419            0              23230          6.1648148e-13
        60   52.709716          24853   373            371            421            0              23688          6.2037987e-13
        61   54.022955          25286   378            375            424            0              24109          6.2393847e-13
        62   55.323551          25771   382            378            426            0              24585          6.2786823e-13
        63   56.670195          26218   383            379            428            0              25028          6.3152813e-13
        64   58.020644          26680   385            380            430            0              25485          6.3524222e-13
        65   59.438109          27133   391            382            430            0              25930          6.3878265e-13
        66   60.873591          27581   392            383            434            0              26372          6.422965e-13 
        67   62.312047          28054   392            385            437            0              26840          6.458361e-13 
        68   63.789804          28507   395            387            439            0              27286          6.4926725e-13
        69   65.292615          28953   395            387            440            0              27731          6.5267806e-13
        70   66.951125          29416   397            390            443            0              28186          6.5611579e-13
        71   68.528586          29871   398            390            445            0              28638          6.5936085e-13
        72   70.128677          30331   399            393            448            0              29091          6.6255158e-13
        73   71.761225          30795   399            395            448            0              29553          6.6579944e-13
        74   73.437498          31246   400            396            451            0              29999          6.6890582e-13
        75   75.176602          31734   404            398            454            0              30478          6.7227463e-13
        76   76.927128          32177   405            398            456            0              30918          6.7522757e-13
        77   78.729514          32644   408            400            456            0              31380          6.7825755e-13
        78   80.551201          33114   410            400            457            0              31847          6.8123025e-13
        79   82.415059          33566   412            402            457            0              32295          6.8398997e-13
        80   84.382942          34025   413            404            458            0              32750          6.8684966e-13
        81   86.297902          34496   414            405            460            0              33217          6.8975004e-13
        82   88.285232          34969   415            406            463            0              33685          6.9262719e-13
        83   90.312617          35453   415            406            466            0              34166          6.9556197e-13
        84   92.35725           35909   415            410            469            0              34615          6.9844133e-13
        85   94.46292           36390   415            411            473            0              35091          7.0163629e-13
        86   96.602531          36844   415            412            475            0              35542          7.0449956e-13
        87   98.782564          37311   416            415            475            0              36005          7.0739691e-13
        88   101.00346          37775   417            417            478            0              36463          7.1036372e-13
        89   103.28279          38251   418            417            484            0              36932          7.1339904e-13
        90   105.70539          38730   422            419            487            0              37402          7.165999e-13 
        91   108.15403          39205   424            420            492            0              37869          7.1993408e-13
        92   110.68727          39669   426            421            493            0              38329          7.2335352e-13
        93   113.23063          40150   426            421            499            0              38804          7.2716291e-13
        94   115.89523          40620   429            425            504            0              39262          7.3100899e-13
        95   118.57643          41093   430            425            510            0              39728          7.3533457e-13
        96   121.37921          41548   430            429            521            0              40168          7.3947107e-13
        97   124.1956           42012   431            430            528            0              40623          7.443215e-13 
        98   126.97114          42463   431            434            535            0              41063          7.4909947e-13
        99   129.87912          42928   432            438            544            0              41514          7.5435629e-13
       100   132.95453          43368   432            440            548            0              41948          7.5988791e-13
       101   135.98375          43822   432            445            565            0              42380          7.6564672e-13
       102   139.0062           44278   434            452            575            0              42817          7.7157721e-13
       103   142.1268           44733   435            454            593            1              43250          7.775699e-13 
       104   145.26583          45162   437            457            606            1              43661          7.8356696e-13
       105   148.38801          45610   439            461            617            1              44092          7.8957007e-13
       106   151.56591          46055   440            468            630            1              44516          7.9542153e-13
       107   154.83205          46494   444            470            638            1              44941          8.015535e-13 
       108   158.0864           46949   444            474            647            2              45382          8.0779364e-13
       109   161.44507          47403   444            481            662            2              45814          8.1392968e-13
       110   165.03251          47882   446            490            677            3              46266          8.2026459e-13
       111   168.49379          48339   451            491            683            3              46711          8.2631096e-13
       112   172.01757          48795   456            492            692            4              47151          8.323585e-13 
       113   175.61051          49263   460            494            711            4              47594          8.3802423e-13
       114   179.32341          49745   464            502            717            7              48055          8.4364203e-13
       115   183.08119          50230   468            504            730            8              48520          8.4920092e-13
       116   186.88356          50693   470            508            744            8              48963          8.5455383e-13
       117   190.773            51165   473            510            758            8              49416          8.596066e-13 
       118   194.7914           51648   477            512            764            11             49884          8.6428631e-13
       119   198.88724          52134   479            514            766            13             50362          8.6872825e-13
       120   203.42019          52615   483            515            769            15             50833          8.7296284e-13
       121   207.7082           53108   486            517            770            17             51318          8.7666355e-13
       122   212.05862          53611   489            524            767            21             51810          8.8012112e-13
       123   216.41549          54144   491            526            767            25             52335          8.8335293e-13
       124   220.85895          54662   494            528            766            26             52848          8.8635974e-13
       125   225.42478          55212   495            529            762            32             53394          8.8928898e-13
       126   230.08406          55730   499            530            762            35             53904          8.9181076e-13
       127   234.745            56293   500            530            757            40             54466          8.945006e-13 
       128   239.53921          56836   502            530            753            45             55006          8.9685601e-13
       129   244.3829           57437   503            531            748            50             55605          8.9924938e-13
       130   249.49014          57992   506            534            747            51             56154          9.0134458e-13
       131   254.50131          58582   508            535            745            53             56741          9.0346462e-13
       132   259.60177          59190   511            536            741            57             57345          9.055673e-13 
       133   264.79179          59786   511            536            738            60             57941          9.0767919e-13
       134   270.12254          60370   512            537            734            64             58523          9.0977598e-13
       135   275.55932          60979   513            537            734            66             59129          9.1200244e-13
       136   281.09677          61533   513            537            731            70             59682          9.1395059e-13
       137   286.70809          62148   514            537            730            74             60293          9.1618873e-13
       138   292.42537          62745   515            538            726            78             60888          9.1827588e-13
       139   298.24929          63307   516            538            723            83             61447          9.2028206e-13
       140   304.34242          63917   516            538            724            85             62054          9.2250265e-13
       141   310.36748          64501   519            539            723            87             62633          9.2459723e-13
       142   316.49712          65110   520            540            724            88             63238          9.2679619e-13
       143   322.74779          65671   520            541            718            94             63798          9.2871585e-13
       144   329.08045          66281   521            543            712            100            64405          9.3097576e-13
       145   335.53228          66842   522            543            710            102            64965          9.3290426e-13
       146   342.12032          67452   525            545            707            105            65570          9.3508782e-13
       147   348.79336          68048   527            545            707            106            66163          9.3719239e-13
       148   355.5814           68651   529            546            703            110            66763          9.3933522e-13
       149   362.49078          69223   530            547            700            113            67333          9.4138187e-13
       150   369.66853          69825   531            547            697            117            67933          9.436344e-13 
       151   376.79304          70412   531            547            696            119            68519          9.4571743e-13
       152   384.01285          71003   531            548            694            121            69109          9.4786792e-13
       153   391.35131          71586   532            551            689            126            69688          9.5000893e-13
       154   398.78967          72192   534            551            685            131            70291          9.5222358e-13
       155   406.34377          72778   538            551            682            134            70873          9.5437324e-13
       156   414.01929          73388   540            551            683            135            71479          9.5666456e-13
       157   421.81302          73979   541            551            681            138            72068          9.588009e-13 
       158   429.73417          74587   543            552            680            139            72673          9.6103562e-13
       159   437.75422          75166   544            552            677            142            73251          9.6317343e-13
       160   446.06713          75767   544            552            677            143            73851          9.6538678e-13
       161   454.28204          76361   544            552            673            147            74445          9.6760227e-13
       162   462.61892          76961   545            553            670            151            75042          9.6977997e-13
       163   471.03245          77559   545            553            669            154            75638          9.7202593e-13
       164   479.56096          78149   547            553            669            156            76224          9.7419099e-13
       165   488.20339          78759   548            553            664            161            76833          9.7644801e-13
       166   496.95517          79346   548            555            661            164            77418          9.7855758e-13
       167   505.79496          79944   548            557            661            165            78013          9.8078179e-13
       168   514.75085          80555   549            557            659            167            78623          9.8304392e-13
       169   523.82529          81161   549            559            656            171            79226          9.8523626e-13
       170   533.18366          81747   550            559            652            176            79810          9.8743039e-13
       171   542.42006          82364   554            560            652            176            80422          9.8970354e-13
       172   551.87027          82968   554            561            650            179            81024          9.9192394e-13
       173   561.39764          83570   554            561            648            181            81626          9.941866e-13 
       174   571.03466          84174   554            563            647            183            82227          9.9642433e-13
       175   580.78197          84777   554            563            647            183            82830          9.9867377e-13
       176   590.61665          85371   555            563            647            183            83423          1.0008797e-12
       177   600.59956          85983   556            563            644            186            84034          1.0031486e-12
       178   610.69208          86576   556            563            641            189            84627          1.0054093e-12
       179   620.89399          87190   557            565            641            190            85237          1.0077346e-12
       180   631.38594          87780   557            566            637            194            85826          1.0099745e-12
       181   641.76407          88389   557            566            635            197            86434          1.0123206e-12
       182   652.29086          88980   558            566            633            199            87024          1.0145787e-12
       183   662.92896          89592   559            566            629            204            87634          1.0169558e-12
       184   673.67527          90204   559            567            625            208            88245          1.0192726e-12
       185   684.51195          90773   559            567            623            210            88814          1.0214933e-12
       186   695.46654          91418   559            569            621            212            89457          1.0239579e-12
       187   706.5577           92004   559            569            621            213            90042          1.0262171e-12
       188   717.74631          92635   561            569            618            216            90671          1.028609e-12 
       189   729.02846          93225   561            570            617            219            91258          1.030875e-12 
       190   740.65002          93845   561            572            617            220            91875          1.0332401e-12
       191   752.23106          94425   563            573            616            222            92451          1.0354876e-12
       192   763.91678          95073   564            573            615            224            93097          1.0380434e-12
       193   775.72522          95661   564            575            615            225            93682          1.0403225e-12
       194   787.62709          96290   565            576            613            227            94309          1.0427664e-12
       195   799.68452          96881   565            577            612            229            94898          1.0451123e-12
       196   811.83306          97510   565            577            610            231            95527          1.0475259e-12
       197   824.08257          98089   566            578            610            232            96103          1.049806e-12 
       198   836.42409          98735   566            578            609            233            96749          1.0523191e-12
       199   848.86938          99313   566            578            610            233            97326          1.0546405e-12
       200   861.69784          99958   566            578            608            235            97971          1.0572325e-12
       201   874.40644         100534   568            579            603            240            98544          1.0595011e-12
       202   887.22529         101153   569            579            603            240            99162          1.0619944e-12
       203   900.14323         101774   569            579            602            241            99783          1.0644988e-12
       204   913.14242         102393   569            581            600            245            100398         1.0669297e-12
       205   926.29588         102989   570            581            597            248            100993         1.0692767e-12
       206   939.58852         103628   571            581            593            252            101631         1.0717968e-12
       207   952.99119         104243   572            581            591            254            102245         1.0741881e-12
       208   966.50269         104871   575            583            589            258            102866         1.0766361e-12
       209   980.17151         105469   575            583            589            260            103462         1.0790107e-12
       210   994.20323         106103   576            583            586            263            104095         1.0814518e-12
       211   1008.1115         106700   578            584            582            267            104689         1.0838478e-12
       212   1022.1383         107350   579            585            580            270            105336         1.0863817e-12
       213   1036.2962         107961   580            585            574            276            105946         1.0888192e-12
       214   1050.609          108581   581            585            571            279            106565         1.0912821e-12
       215   1065.054          109208   583            586            571            280            107188         1.093746e-12 
       216   1079.5746         109838   583            586            568            283            107818         1.0961928e-12
       217   1095.0102         110454   583            586            565            286            108434         1.0985829e-12
       218   1109.824          111097   583            586            566            287            109075         1.1010994e-12
       219   1124.7433         111702   583            586            565            288            109680         1.1034137e-12
       220   1140.0947         112349   583            586            563            291            110326         1.1059827e-12
       221   1155.3841         112954   583            586            561            293            110931         1.1084106e-12
       222   1170.8585         113573   583            586            561            293            111550         1.1109538e-12
       223   1186.4479         114196   583            587            558            297            112171         1.1135819e-12
       224   1202.1659         114827   583            588            553            303            112800         1.1164721e-12
       225   1217.9897         115435   584            588            551            307            113405         1.1190991e-12
       226   1234.0183         116078   585            588            546            313            114046         1.1220185e-12
       227   1250.1489         116685   586            590            543            317            114649         1.1248459e-12
       228   1266.511          117336   586            590            538            325            115297         1.1281804e-12
       229   1282.916          117929   586            590            540            327            115886         1.1317854e-12
       230   1299.716          118574   586            590            545            330            116523         1.1357991e-12
       231   1316.4062         119187   586            590            548            335            117128         1.1398024e-12
       232   1333.2657         119811   586            590            551            338            117746         1.1442597e-12
       233   1350.2551         120414   586            590            558            339            118341         1.1488743e-12
       234   1367.3867         121041   588            590            565            342            118956         1.1539392e-12
       235   1384.7058         121652   589            589            577            345            119552         1.1595079e-12
       236   1402.1158         122265   590            589            585            346            120155         1.1654951e-12
       237   1419.7088         122857   591            590            590            350            120736         1.1716106e-12
       238   1437.4052         123467   592            590            595            356            121334         1.1782993e-12
       239   1455.3155         124041   594            591            603            365            121888         1.1850461e-12
       240   1473.5789         124647   596            593            623            367            122468         1.1923751e-12
       241   1491.645          125206   598            594            639            373            123002         1.2000209e-12
       242   1509.8231         125769   603            595            652            380            123539         1.2075264e-12
       243   1528.0477         126303   605            599            659            386            124054         1.2147521e-12
       244   1546.4685         126841   609            602            664            391            124575         1.2220194e-12
       245   1565.0356         127395   613            604            676            397            125105         1.2291989e-12
       246   1583.6982         127897   617            608            683            402            125587         1.2357226e-12
       247   1602.4853         128408   619            610            684            410            126085         1.24162e-12  
       248   1621.336          128951   625            617            688            418            126603         1.2470852e-12
       249   1640.2417         129491   628            619            690            424            127130         1.2519843e-12
       250   1659.8962         130036   635            622            688            429            127662         1.2565814e-12
       251   1679.099          130594   637            623            689            433            128212         1.2607114e-12
       252   1698.3443         131192   643            627            688            437            128797         1.2646001e-12
       253   1717.7937         131811   647            632            684            446            129402         1.268e-12    
       254   1737.2687         132445   649            633            680            453            130030         1.2712769e-12
       255   1756.8809         133073   651            633            676            461            130652         1.2742654e-12
       256   1776.6601         133739   651            634            673            466            131315         1.2772497e-12
       257   1796.5878         134408   652            634            669            472            131981         1.2800384e-12
       258   1816.7156         135126   650            636            668            476            132696         1.2830242e-12
       259   1836.9596         135810   647            637            666            481            133379         1.2857464e-12
       260   1857.6757         136499   646            637            666            483            134067         1.2883748e-12
       261   1878.2621         137238   646            639            658            492            134803         1.2912018e-12
       262   1899.0019         137936   647            641            656            495            135497         1.2938191e-12
       263   1919.9072         138668   648            641            656            497            136226         1.2966035e-12
       264   1940.9193         139406   649            640            654            500            136963         1.2993999e-12
       265   1962.1279         140111   650            640            654            501            137666         1.3020343e-12
       266   1983.3872         140828   650            639            653            503            138383         1.3047683e-12
       267   2004.8241         141562   650            640            652            504            139116         1.3075313e-12
       268   2026.3299         142274   649            638            649            510            139828         1.3102567e-12
       269   2047.9777         142973   650            639            646            513            140525         1.3128518e-12
       270   2070.1086         143720   650            641            646            513            141270         1.315691e-12 
       271   2092.0806         144421   649            641            644            516            141971         1.3183421e-12
       272   2114.3967         145160   650            641            642            518            142709         1.3211619e-12
       273   2136.8059         145842   651            643            642            518            143388         1.3237673e-12
       274   2159.4232         146576   650            643            642            522            144119         1.3265367e-12
       275   2182.1854         147292   650            643            639            525            144835         1.3292352e-12
       276   2205.0789         148020   652            643            638            527            145560         1.3320114e-12
       277   2228.0886         148731   653            643            639            527            146269         1.3346969e-12
       278   2251.3745         149451   654            643            638            529            146987         1.3373958e-12
       279   2274.9142         150190   655            643            635            533            147724         1.3401439e-12
       280   2298.9239         150885   655            642            634            535            148419         1.3427576e-12
       281   2322.8251         151597   655            641            633            537            149131         1.3454994e-12
       282   2346.8213         152298   655            641            632            538            149832         1.3481721e-12
       283   2371.0035         153030   656            640            630            541            150563         1.3509604e-12
       284   2395.3104         153736   656            641            626            545            151268         1.3536558e-12
       285   2419.7768         154462   657            642            626            545            151992         1.356451e-12 
       286   2444.4778         155174   658            643            625            546            152702         1.3591273e-12
       287   2469.2948         155887   658            643            625            546            153415         1.3617789e-12
       288   2494.2811         156601   658            643            623            549            154128         1.3644404e-12
       289   2519.3896         157299   658            644            623            549            154825         1.3671311e-12
       290   2545.021          158016   658            644            624            549            155541         1.3697804e-12
       291   2570.4954         158746   659            644            624            549            156270         1.3725735e-12
       292   2596.1107         159445   659            644            624            550            156968         1.3751773e-12
       293   2621.8553         160174   659            645            624            552            157694         1.3780057e-12
       294   2647.7452         160870   659            645            624            553            158389         1.3805487e-12
       295   2673.772          161585   659            646            622            555            159103         1.3833477e-12
       296   2699.9584         162300   659            646            620            557            159818         1.3861273e-12
       297   2726.3122         163016   659            646            620            557            160534         1.3888577e-12
       298   2752.8265         163731   659            647            617            560            161248         1.3916472e-12
       299   2779.5405         164435   659            647            616            562            161951         1.3943384e-12
       300   2806.8778         165153   659            647            615            563            162669         1.3970727e-12
Loop time of 2806.88 on 16 procs for 300 steps with 165153 atoms

96.9% CPU use with 16 MPI tasks x 1 OpenMP threads

MPI task timing breakdown:
Section |  min time  |  avg time  |  max time  |%varavg| %total
---------------------------------------------------------------
Pair    | 838.86     | 972.62     | 1105.7     | 205.6 | 34.65
Neigh   | 703.6      | 765.65     | 824.77     | 100.0 | 27.28
Comm    | 345.12     | 358.6      | 370.56     |  43.8 | 12.78
Output  | 30.026     | 30.026     | 30.027     |   0.0 |  1.07
Modify  | 490.96     | 669.43     | 862.29     | 322.1 | 23.85
Other   |            | 10.55      |            |       |  0.38

Nlocal:        10322.1 ave       10620 max       10005 min
Histogram: 1 0 2 1 5 4 0 1 1 1
Nghost:        7941.88 ave        8097 max        7727 min
Histogram: 2 0 0 2 2 3 2 0 2 3
Neighs:         126631 ave      133193 max      119621 min
Histogram: 1 0 0 3 4 3 2 1 0 2

Total # of neighbors = 2026092
Ave neighs/atom = 12.26797
Neighbor list builds = 26423
Dangerous builds = 26123

Total wall time: 0:47:14
