LAMMPS (23 Jun 2022 - Update 4)
  using 1 OpenMP thread(s) per MPI task
package omp 0
using multi-threaded neighbor list subroutines
#-----------------------------------------------------------------------------#
#                NUFEB Simulation: Heterotrophic Biofilm Growth               #
#-----------------------------------------------------------------------------#


#-----------------------------System Settings---------------------------------#

units si                                    # using si units (m, s, kg)
atom_style      coccus                      # using nufeb coccus atom style
atom_modify     map array sort 10 0         # map array - find atoms using indices
		                            # sort every 10

boundary        pp pp ff                    # periodic boundaries in x and y
                                            # fixed boundary in z

newton          off                         # forces between local and ghost
                                            # atoms are computed in each
					     # processor without communication

processors      * * 1                       # processor grid

comm_modify     vel yes                     # communicate velocities for ghost atoms

read_data       atom_ch.in	             # read atom.in file which defines domain size
Reading data file ...
  orthogonal box = (0 0 0) to (6e-05 6e-05 6e-05)
  4 by 4 by 1 MPI processor grid
  reading atoms ...
  150 atoms
  read_data CPU = 0.023 seconds
                                            # and initial atoms


#--------------------Microbes and Functional Groups-------------------------#

group           CROSS1   type 1               # assign type 1,2 atoms to CROSS group
50 atoms in group CROSS1
group           CROSS2   type 2
50 atoms in group CROSS2
group		CHEATER  type 3
50 atoms in group CHEATER
group           dead     type 4
0 atoms in group dead

neighbor        5e-7 bin                   # setting neighbour skin distance and style

neigh_modify    check yes                  # rebuild neighbour list if any atom
                                           # had moved more than half the skin distance


#--------------------------Mesh Grid and Substrates--------------------------#

# defining grid sytle, substrate names, and grid size
grid_style      nufeb/chemostat 3 sub metab1 metab2 5e-6

# set diffusion boundary conditions and initial concentrations (liquid:kg/m3)
grid_modify     set sub      pp pp nd  1.4e-4
No /omp style for force computation currently active
grid_modify     set metab1   pp pp nd  1e-4
No /omp style for force computation currently active
grid_modify     set metab2   pp pp nd  1e-4
No /omp style for force computation currently active


#--------------------------Biological Processes-------------------------------#

# heterotrophs growth
fix growth_cross1 CROSS1 nufeb/growth/cross1 sub 3.5e-5 metab2 4e-3 metab1 growth 0.008 yield 0.6 decay 2.6e-6 metab1_exp 20

fix growth_cross2 CROSS2 nufeb/growth/cross2 sub 3.5e-5 metab1 4e-3 metab2 growth 0.008 yield 0.6 decay 2.6e-6 metab2_exp 20

fix growth_cheater CHEATER nufeb/growth/cheater sub 3.5e-5 metab1 1e-3 metab2 1e-3 growth 0.008 yield 0.6 decay 2.6e-6
# heterotrophs division, division diameter: 1.36e-6
fix div1 CROSS1 nufeb/division/coccus 1.36e-6 1234
fix div2 CROSS2 nufeb/division/coccus 1.36e-6 1235
fix div3 CHEATER nufeb/division/coccus 1.36e-6 1236

fix death1 CROSS1 nufeb/death/diameter dead 5.43e-7
fix death2 CROSS2 nufeb/death/diameter dead 5.43e-7
fix death3 CHEATER nufeb/death/diameter dead 5.43e-7

#---------------------------Physical Processes--------------------------------#

pair_style  gran/hooke/history 1e-4 NULL 1e-5 NULL 0.0 0    # pairwise interaction
pair_coeff  * *                                             # between atoms

# pairwise interaction between z-wall and atoms
fix wall all wall/gran hooke/history 1e-3 NULL 1e-4 NULL 0 0 zplane 0.0 1e-04

fix vis all viscous 1e-5                                    # viscous damping force

fix grav all gravity 9.81 vector 0.0 0.0 -1.0

fix nve all nve/limit 1e-7                                  # NVE integration with
                                                            # maximum distance limit


#---------------------------Post-Physical Processes---------------------------#

fix coeff_sub all nufeb/diffusion_coeff sub ratio 0.8       # defining diffusion coeff in the biofilm
fix coeff_metab1 all nufeb/diffusion_coeff metab1 ratio 0.8    # region is 80% of the value in liquid
fix coeff_metab2 all nufeb/diffusion_coeff metab2 ratio 0.8

#---------------------------Chemical Processes---------------------------------#

fix diff_sub all nufeb/diffusion_reaction sub 1e-9        # diffusion reaction for updating
fix diff_metab1 all nufeb/diffusion_reaction metab1 4e-9     # distribusion of substrate concentration
fix diff_metab2 all nufeb/diffusion_reaction metab2 4e-9

#--------------------------Computations and Outputs----------------------------#

variable mass equal "mass(all)"                             # total mass
variable ncross1 equal "count(CROSS1)"                      # total # of CROSS1
variable ncross2 equal "count(CROSS2)"                      # total # of CROSS2
variable ncheater equal "count(CHEATER)"
variable ndead equal "count(dead)"

shell mkdir vtk_NEPS_ch                                            # dump vtk files to /vtk folder
dump du1 all vtk 10 vtk_NEPS_ch/dump*.vtu id type diameter         # require build NUFEB with vtk option
dump du2 all grid/vtk 10 vtk_NEPS_ch/dump_%_*.vti con rea den gro

#dump du3 all movie 10 movie.avi type diameter view 80 60    # dump video
#dump_modify du3 acolor 1 blue acolor 2 lightgrey framerate 10


                                                            # dump hdf5 files to /hdf5 folder
#shell mkdir hdf5                                           # require build NUFEB with hdf5 option
#dump du3 all nufeb/hdf5 10 dump.h5 id type x y z vx vy vz fx fy fz radius conc reac

thermo_style custom step cpu atoms v_ncross1 v_ncross2 v_ncheater v_ndead v_mass     # screen and log outputs
thermo 1
thermo_modify   lost ignore

#-----------------------------------Run----------------------------------------#

# issue run command, define timesteps for physical (pairdt) and chemical (diffdt) processes
run_style nufeb diffdt 1e-4 difftol 1e-6 pairdt 1e-2 pairtol 1 pairmax 1000 diffmax 5000

timestep 5000                                               # define biological timesteps (1000s)

run 2000                                                    # growing biofilm for 900x1000s
Generated 0 of 6 mixed pair_coeff terms from geometric mixing rule
Last active /omp style is pair_style gran/hooke/history/omp
Neighbor list info ...
  update every 1 steps, delay 10 steps, check yes
  max neighbors/atom: 2000, page size: 100000
  master list distance cutoff = 2.49e-06
  ghost atom cutoff = 2.49e-06
  binsize = 1.245e-06, bins = 49 49 49
  1 neighbor lists, perpetual/occasional/extra = 1 0 0
  (1) pair gran/hooke/history/omp, perpetual
      attributes: half, newton off, size, history, omp
      pair build: half/size/bin/newtoff/omp
      stencil: full/bin/3d
      bin: standard
Per MPI rank memory allocation (min/avg/max) = 11.02 | 11.02 | 11.02 Mbytes
   Step          CPU          Atoms      v_ncross1      v_ncross2      v_ncheater      v_ndead         v_mass    
         0   0                    150   50             50             50             0              1.3295396e-13
         1   0.39107322           248   86             82             80             0              1.5073956e-13
         2   0.75019686           350   114            119            117            0              1.5919855e-13
         3   1.0394323            373   117            130            126            0              1.660684e-13 
         4   1.3252487            385   122            133            130            0              1.7235777e-13
         5   1.5073163            391   125            135            131            0              1.784066e-13 
         6   1.6401269            409   130            142            137            0              1.8430807e-13
         7   1.7515271            426   135            147            144            0              1.9004127e-13
         8   1.8520133            437   138            151            148            0              1.9562323e-13
         9   1.9455907            445   140            154            151            0              2.0108866e-13
        10   2.0576837            458   144            160            154            0              2.0645875e-13
        11   2.1569807            466   146            164            156            0              2.1168873e-13
        12   2.2599698            481   150            173            158            0              2.1682725e-13
        13   2.3471772            495   156            177            162            0              2.2183637e-13
        14   2.4613674            513   163            186            164            0              2.2676164e-13
        15   2.5828851            528   167            190            171            0              2.3154974e-13
        16   2.6810694            535   170            191            174            0              2.3620577e-13
        17   2.7633771            555   176            198            181            0              2.4076349e-13
        18   2.8710682            561   178            201            182            0              2.4521065e-13
        19   2.9557827            566   179            204            183            0              2.495677e-13 
        20   3.0426008            573   182            205            186            0              2.5383232e-13
        21   3.1425715            582   185            208            189            0              2.5800787e-13
        22   3.2150233            595   190            211            194            0              2.6201442e-13
        23   3.2738535            605   192            214            199            0              2.6592844e-13
        24   3.3380098            611   195            215            201            0              2.6973632e-13
        25   3.4025548            619   198            217            204            0              2.7347317e-13
        26   3.4658113            628   201            220            207            0              2.7713991e-13
        27   3.5070577            636   202            223            211            0              2.8073807e-13
        28   3.5878549            647   204            229            214            0              2.8424435e-13
        29   3.6566664            655   207            233            215            0              2.8768824e-13
        30   3.7459727            667   210            236            221            0              2.9105952e-13
        31   3.8014592            679   214            242            223            0              2.9435255e-13
        32   3.8590343            685   215            244            226            0              2.9758038e-13
        33   3.9484144            694   215            248            231            0              3.0074116e-13
        34   4.012727             699   217            251            231            0              3.0385142e-13
        35   4.0676771            711   222            253            236            0              3.0689033e-13
        36   4.1240449            717   224            254            239            0              3.0987381e-13
        37   4.1717731            726   226            257            243            0              3.1280932e-13
        38   4.2228199            733   229            259            245            0              3.1569796e-13
        39   4.3095642            741   233            260            248            0              3.1855103e-13
        40   4.3860844            746   233            261            252            0              3.2137972e-13
        41   4.4399778            754   238            263            253            0              3.2413704e-13
        42   4.4919602            763   238            265            260            0              3.2684192e-13
        43   4.5388471            765   238            265            262            0              3.2948535e-13
        44   4.5853687            776   239            269            268            0              3.3207196e-13
        45   4.6619375            782   241            271            270            0              3.3460283e-13
        46   4.7164119            791   242            272            277            0              3.370832e-13 
        47   4.763078             800   247            273            280            0              3.395071e-13 
        48   4.8090421            804   250            273            281            0              3.4188074e-13
        49   4.853556             808   251            273            284            0              3.4421003e-13
        50   4.9164194            823   253            278            292            0              3.4649778e-13
        51   4.9597031            830   255            280            295            0              3.4874562e-13
        52   5.0075828            834   257            281            296            0              3.5095283e-13
        53   5.0448685            838   258            282            298            0              3.5312517e-13
        54   5.0848179            844   259            283            302            0              3.5525486e-13
        55   5.1188688            847   260            283            304            0              3.5734593e-13
        56   5.15864              853   262            283            308            0              3.5939314e-13
        57   5.2144896            860   262            284            314            0              3.6139339e-13
        58   5.256325             864   263            284            317            0              3.6336495e-13
        59   5.2950145            868   264            286            318            0              3.6531093e-13
        60   5.3474662            874   265            288            321            0              3.6722127e-13
        61   5.3936933            878   265            288            325            0              3.6909652e-13
        62   5.4417976            887   267            290            330            0              3.7093978e-13
        63   5.4869378            891   268            290            333            0              3.7274935e-13
        64   5.5315897            895   268            292            335            0              3.7454086e-13
        65   5.5739267            899   268            294            337            0              3.7630764e-13
        66   5.6117723            904   270            294            340            0              3.7803558e-13
        67   5.6489287            909   273            294            342            0              3.7973246e-13
        68   5.6906066            919   275            296            348            0              3.8139896e-13
        69   5.729239             925   275            298            352            0              3.8304959e-13
        70   5.7851169            930   275            301            354            0              3.8466751e-13
        71   5.8305086            933   276            301            356            0              3.8625878e-13
        72   5.8610633            937   276            302            359            0              3.8783158e-13
        73   5.9108047            944   276            304            364            0              3.8936738e-13
        74   5.9512473            949   277            305            367            0              3.9087395e-13
        75   5.9857452            954   278            306            370            0              3.923659e-13 
        76   6.0192659            961   280            306            375            0              3.9382777e-13
        77   6.0546214            967   283            306            378            0              3.9526792e-13
        78   6.0930652            976   286            306            384            0              3.9667904e-13
        79   6.1250866            981   287            306            388            0              3.9806812e-13
        80   6.1791369            984   288            306            390            0              3.9943471e-13
        81   6.2403565            988   290            308            390            0              4.0077774e-13
        82   6.291891             992   290            308            394            0              4.0214306e-13
        83   6.3351532            994   290            308            396            0              4.0348629e-13
        84   6.3789183            998   290            309            399            0              4.0481914e-13
        85   6.417893            1001   290            309            402            0              4.0613479e-13
        86   6.4526266           1005   290            311            404            0              4.0739935e-13
        87   6.4903167           1008   290            312            406            0              4.086459e-13 
        88   6.5303908           1011   290            313            408            0              4.0987973e-13
        89   6.5749989           1015   290            314            411            0              4.1110125e-13
        90   6.6431582           1020   291            314            415            0              4.1231523e-13
        91   6.6796865           1023   291            314            418            0              4.1340378e-13
        92   6.7143206           1025   291            315            419            0              4.1446017e-13
        93   6.7785104           1029   291            316            422            0              4.1550248e-13
        94   6.8210562           1031   291            318            422            0              4.1652073e-13
        95   6.8702481           1034   292            319            423            0              4.1751129e-13
        96   6.9096088           1039   292            320            427            0              4.1849088e-13
        97   6.953375            1044   294            320            430            0              4.1945785e-13
        98   6.9990072           1047   295            321            431            0              4.2044905e-13
        99   7.0464917           1049   296            321            432            0              4.2143506e-13
       100   7.1651706           1052   297            321            434            0              4.2241928e-13
       101   7.2738521           1055   297            321            437            0              4.2336267e-13
       102   7.3370088           1058   298            321            439            0              4.2433794e-13
       103   7.3952122           1059   298            321            440            0              4.2531381e-13
       104   7.4560519           1064   300            322            442            0              4.2628894e-13
       105   7.5201218           1069   300            322            447            0              4.2726866e-13
       106   7.5567965           1071   301            322            448            0              4.2824928e-13
       107   7.8366496           1072   301            323            448            0              4.2921372e-13
       108   7.8953979           1079   305            323            451            0              4.3018531e-13
       109   7.9378292           1085   305            323            457            0              4.311717e-13 
       110   8.1031744           1088   306            323            459            0              4.3214928e-13
       111   8.1755159           1088   306            323            459            0              4.3313787e-13
       112   8.2396656           1092   307            323            462            0              4.3413759e-13
       113   8.2921697           1097   307            323            467            0              4.3516641e-13
       114   8.3544849           1098   307            323            468            0              4.3618186e-13
       115   8.4193054           1105   307            324            474            0              4.3720668e-13
       116   8.4856849           1108   308            325            475            0              4.3824769e-13
       117   8.5520932           1112   308            326            478            0              4.3930422e-13
       118   8.6166818           1116   309            327            480            0              4.4037774e-13
       119   8.6858741           1121   309            327            485            0              4.4147137e-13
       120   8.7714291           1128   311            327            490            0              4.4256911e-13
       121   8.8224908           1133   311            327            495            0              4.4368264e-13
       122   8.8859844           1134   311            327            496            0              4.4477812e-13
       123   8.930128            1141   313            327            501            0              4.4588932e-13
       124   8.9774286           1148   314            328            506            0              4.4698287e-13
       125   9.0518514           1151   314            328            509            0              4.4807072e-13
       126   9.0949697           1153   314            328            511            0              4.4920036e-13
       127   9.1446434           1158   315            328            515            0              4.5031763e-13
       128   9.2005251           1165   316            328            520            1              4.5142926e-13
       129   9.2625419           1169   317            328            522            2              4.5254741e-13
       130   9.3321849           1174   318            328            526            2              4.5368061e-13
       131   9.3929946           1178   318            328            530            2              4.5480217e-13
       132   9.4618673           1181   318            328            533            2              4.5593691e-13
       133   9.5079458           1185   318            328            537            2              4.5709918e-13
       134   9.561438            1191   318            328            542            3              4.5823911e-13
       135   9.6198249           1194   318            328            544            4              4.5938531e-13
       136   9.6735717           1199   320            328            547            4              4.6054034e-13
       137   9.721585            1203   320            328            550            5              4.616972e-13 
       138   9.7767555           1205   320            328            551            6              4.6284084e-13
       139   9.8314583           1210   320            328            554            8              4.6398882e-13
       140   9.9235045           1211   320            328            553            10             4.6514732e-13
       141   9.9882616           1217   320            328            558            11             4.6633017e-13
       142   10.04207            1222   321            328            562            11             4.6752889e-13
       143   10.084616           1227   322            328            563            14             4.6872819e-13
       144   10.136157           1234   324            328            568            14             4.6991013e-13
       145   10.195241           1238   324            328            570            16             4.7108551e-13
       146   10.235551           1244   324            328            576            16             4.7227269e-13
       147   10.283853           1251   325            328            581            17             4.7344191e-13
       148   10.333694           1253   325            328            583            17             4.7461078e-13
       149   10.381941           1259   325            328            586            20             4.7577444e-13
       150   10.444428           1263   326            328            589            20             4.7693763e-13
       151   10.489122           1269   326            329            593            21             4.7809335e-13
       152   10.522775           1273   326            329            594            24             4.7923683e-13
       153   10.562109           1274   326            329            592            27             4.8035763e-13
       154   10.595658           1280   326            330            595            29             4.8147206e-13
       155   10.633358           1286   327            330            597            32             4.8257997e-13
       156   10.672974           1289   327            330            597            35             4.8366913e-13
       157   10.713063           1297   328            330            603            36             4.8475375e-13
       158   10.750022           1304   328            330            610            36             4.8582796e-13
       159   10.787372           1306   329            330            609            38             4.8688831e-13
       160   10.851246           1312   329            330            610            43             4.8794128e-13
       161   10.881536           1316   329            330            613            44             4.8897224e-13
       162   10.915646           1321   329            331            615            46             4.899903e-13 
       163   10.954426           1325   329            331            618            47             4.9099514e-13
       164   10.993744           1326   329            331            617            49             4.9199589e-13
       165   11.021521           1331   329            331            620            51             4.9299165e-13
       166   11.053527           1336   329            331            625            51             4.9395492e-13
       167   11.087202           1339   329            331            625            54             4.9490915e-13
       168   11.117928           1341   330            331            625            55             4.9585058e-13
       169   11.146024           1346   330            331            628            57             4.9678278e-13
       170   11.201539           1349   330            331            631            57             4.9768785e-13
       171   11.2348             1352   330            331            628            63             4.9857801e-13
       172   11.267948           1355   330            331            628            66             4.9946547e-13
       173   11.290739           1362   330            331            631            70             5.0034768e-13
       174   11.319295           1365   331            331            632            71             5.0121142e-13
       175   11.347691           1368   331            331            634            72             5.0206686e-13
       176   11.375574           1373   331            331            635            76             5.029122e-13 
       177   11.40417            1374   331            331            633            79             5.0374986e-13
       178   11.461762           1382   331            331            639            81             5.0457767e-13
       179   11.511824           1385   331            331            641            82             5.0543996e-13
       180   11.572426           1387   331            331            643            82             5.0629082e-13
       181   11.622631           1392   331            332            647            82             5.0713639e-13
       182   11.668974           1398   331            332            652            83             5.0798198e-13
       183   11.710911           1401   331            332            652            86             5.0882689e-13
       184   11.779659           1403   331            332            653            87             5.0962146e-13
       185   11.831963           1406   331            332            655            88             5.1046537e-13
       186   11.887653           1409   331            332            656            90             5.1131037e-13
       187   11.929095           1415   332            332            658            93             5.1216379e-13
       188   11.989022           1419   332            332            659            96             5.1300442e-13
       189   12.048662           1422   332            332            661            97             5.1385178e-13
       190   12.203439           1426   333            332            664            97             5.1472286e-13
       191   12.298052           1431   334            332            667            98             5.1560213e-13
       192   12.405724           1434   335            332            666            101            5.1650524e-13
       193   12.499426           1437   335            332            668            102            5.1746542e-13
       194   12.577489           1442   335            332            670            105            5.1846119e-13
       195   12.673851           1446   335            332            673            106            5.1946064e-13
       196   12.766629           1450   335            332            676            107            5.2050216e-13
       197   12.974771           1450   335            332            673            110            5.2157254e-13
       198   13.072746           1458   335            332            680            111            5.2269216e-13
       199   13.15944            1462   335            332            684            111            5.2385099e-13
       200   13.268435           1465   335            332            686            112            5.2502213e-13
       201   13.371843           1468   335            333            687            113            5.2622833e-13
       202   13.479788           1472   335            333            691            113            5.2748153e-13
       203   13.581521           1478   335            333            695            115            5.2878754e-13
       204   13.685206           1481   335            333            697            116            5.3013704e-13
       205   13.737439           1488   335            333            702            118            5.315308e-13 
       206   13.845461           1493   336            334            703            120            5.3290069e-13
       207   13.925612           1496   336            334            704            122            5.3433182e-13
       208   14.037989           1500   336            334            708            122            5.3577141e-13
       209   14.137527           1505   336            334            712            123            5.3726687e-13
       210   14.25451            1513   337            334            719            123            5.387933e-13 
       211   14.343015           1516   337            334            720            125            5.4034429e-13
       212   14.438899           1524   337            334            728            125            5.4190855e-13
       213   14.51238            1533   337            334            736            126            5.4349296e-13
       214   14.594385           1537   337            334            739            127            5.4506811e-13
       215   14.671385           1542   337            334            744            127            5.4664983e-13
       216   14.750455           1550   337            334            750            129            5.4822817e-13
       217   14.828849           1552   337            334            752            129            5.4981194e-13
       218   14.891414           1559   337            334            758            130            5.5139247e-13
       219   14.963241           1567   337            334            765            131            5.5295729e-13
       220   15.045431           1574   337            334            771            132            5.5451806e-13
       221   15.11288            1580   337            334            777            132            5.5606689e-13
       222   15.181905           1586   337            335            778            136            5.5760784e-13
       223   15.237008           1594   337            335            785            137            5.5913763e-13
       224   15.307271           1600   337            335            790            138            5.6064663e-13
       225   15.359351           1604   337            335            792            140            5.6214692e-13
       226   15.412093           1616   337            335            804            140            5.6362622e-13
       227   15.463433           1622   337            335            810            140            5.6507925e-13
       228   15.515027           1625   337            335            813            140            5.6651045e-13
       229   15.565579           1633   337            335            820            141            5.6792074e-13
       230   15.636071           1639   337            335            824            143            5.6931123e-13
       231   15.689185           1643   337            336            827            143            5.7067817e-13
       232   15.734232           1649   338            336            830            145            5.7202167e-13
       233   15.82175            1655   338            336            836            145            5.7334376e-13
       234   15.865791           1661   338            336            842            145            5.7473277e-13
       235   15.913723           1665   338            336            846            145            5.7605795e-13
       236   15.973414           1667   338            336            848            145            5.7736917e-13
       237   16.076152           1674   338            336            855            145            5.7867236e-13
       238   16.15271            1683   338            336            864            145            5.800315e-13 
       239   16.227804           1686   338            336            867            145            5.8139172e-13
       240   16.29515            1695   338            336            875            146            5.8275494e-13
       241   16.343111           1703   338            336            883            146            5.8408806e-13
       242   16.44392            1707   338            336            887            146            5.8539813e-13
       243   16.569786           1716   338            336            893            149            5.8678676e-13
       244   16.712501           1717   338            336            892            151            5.882685e-13 
       245   16.852504           1729   338            336            902            153            5.8984943e-13
       246   16.983365           1733   338            336            903            156            5.9148468e-13
       247   17.08518            1742   338            336            912            156            5.931852e-13 
       248   17.231365           1748   338            336            915            159            5.9487843e-13
       249   17.33332            1756   338            336            919            163            5.9668134e-13
       250   17.544267           1759   339            336            921            163            5.9848407e-13
       251   17.690078           1766   339            336            928            163            6.0035782e-13
       252   17.799997           1771   339            336            929            167            6.0231005e-13
       253   17.871242           1781   339            336            938            168            6.0427944e-13
       254   18.090448           1787   339            336            943            169            6.0622087e-13
       255   18.222101           1796   339            336            950            171            6.0821507e-13
       256   18.370624           1803   339            336            956            172            6.1026413e-13
       257   18.511066           1809   339            336            961            173            6.1239158e-13
       258   18.628595           1816   339            336            968            173            6.1456589e-13
       259   18.745694           1824   339            336            972            177            6.1676007e-13
       260   18.877946           1833   339            336            978            180            6.189752e-13 
       261   18.988989           1845   339            336            988            182            6.2121123e-13
       262   19.103253           1852   339            336            993            184            6.2346335e-13
       263   19.207974           1861   339            336            1001           185            6.2572913e-13
       264   19.304362           1866   339            336            1003           188            6.2799484e-13
       265   19.395622           1874   339            336            1011           188            6.3025448e-13
       266   19.483543           1882   339            336            1019           188            6.3250002e-13
       267   19.569669           1891   339            336            1025           191            6.3472098e-13
       268   19.641996           1897   339            336            1028           194            6.3692674e-13
       269   19.722046           1906   339            336            1036           195            6.3910466e-13
       270   19.814785           1916   339            336            1044           197            6.4126026e-13
       271   19.912722           1925   339            336            1052           198            6.4337786e-13
       272   20.027065           1931   339            336            1057           199            6.4551575e-13
       273   20.139458           1941   339            336            1067           199            6.4765191e-13
       274   20.226035           1954   339            336            1080           199            6.4979516e-13
       275   20.323856           1956   339            336            1078           203            6.5193702e-13
       276   20.416361           1963   339            336            1083           205            6.5405812e-13
       277   20.514404           1973   339            336            1092           206            6.5616733e-13
       278   20.597168           1985   339            336            1104           206            6.5826858e-13
       279   20.669588           1993   339            336            1110           208            6.6035963e-13
       280   20.797728           2003   339            336            1117           211            6.6241291e-13
       281   20.900364           2009   339            336            1122           212            6.6446248e-13
       282   20.982879           2017   339            336            1126           216            6.6650939e-13
       283   21.104206           2024   339            336            1133           216            6.6853477e-13
       284   21.183963           2032   339            336            1140           217            6.7059558e-13
       285   21.310833           2040   339            335            1147           219            6.7262509e-13
       286   21.420672           2049   339            335            1153           222            6.7475321e-13
       287   21.576617           2057   339            335            1159           224            6.7687465e-13
       288   21.699522           2064   339            335            1165           225            6.790765e-13 
       289   21.815071           2077   338            335            1176           228            6.8130008e-13
       290   21.966057           2084   339            335            1178           232            6.8351558e-13
       291   22.14316            2096   339            335            1187           235            6.8581692e-13
       292   22.278979           2103   339            335            1193           236            6.8828114e-13
       293   22.385416           2111   340            335            1199           237            6.9074504e-13
       294   22.555367           2123   340            335            1209           239            6.9320158e-13
       295   22.688133           2136   340            335            1221           240            6.9577324e-13
       296   22.841713           2143   340            335            1228           240            6.9838122e-13
       297   23.030585           2155   340            335            1237           243            7.0105071e-13
       298   23.193037           2163   340            334            1244           245            7.0385097e-13
       299   23.37057            2182   340            334            1260           248            7.0673711e-13
       300   23.598175           2197   340            334            1274           249            7.0969931e-13
       301   23.784883           2208   340            334            1284           250            7.1280598e-13
       302   23.943047           2216   340            334            1292           250            7.1600022e-13
       303   24.134928           2227   340            334            1303           250            7.1923757e-13
       304   24.289884           2235   340            334            1311           250            7.2258549e-13
       305   24.485981           2256   340            334            1331           251            7.2597132e-13
       306   24.667512           2265   340            334            1339           252            7.2947256e-13
       307   24.811218           2280   340            334            1353           253            7.330381e-13 
       308   24.980392           2291   339            334            1363           255            7.3660996e-13
       309   25.12838            2306   339            334            1377           256            7.4023611e-13
       310   25.270791           2329   339            333            1400           257            7.4387625e-13
       311   25.40411            2347   339            333            1417           258            7.4751107e-13
       312   25.553834           2360   339            333            1429           259            7.511099e-13 
       313   25.686229           2374   339            333            1442           260            7.5473037e-13
       314   25.801834           2387   339            333            1453           262            7.5834148e-13
       315   25.933023           2404   339            333            1469           263            7.6192445e-13
       316   26.082469           2417   339            333            1480           265            7.6550367e-13
       317   26.216211           2433   339            333            1496           265            7.6912176e-13
       318   26.340171           2448   339            333            1510           266            7.7270125e-13
       319   26.46852            2462   339            333            1522           268            7.7625441e-13
       320   26.608433           2481   339            333            1541           268            7.7980788e-13
       321   26.703426           2497   339            333            1556           269            7.8333517e-13
       322   26.838923           2509   339            333            1567           270            7.868143e-13 
       323   26.978955           2520   339            333            1578           270            7.9029022e-13
       324   27.096941           2531   339            333            1588           271            7.937749e-13 
       325   27.205939           2545   339            333            1601           272            7.9723419e-13
       326   27.316045           2564   339            333            1619           273            8.006723e-13 
       327   27.482115           2578   339            333            1633           273            8.0404641e-13
       328   27.613923           2590   339            333            1645           273            8.0753318e-13
       329   27.757979           2610   339            333            1664           274            8.1098951e-13
       330   27.960595           2626   339            333            1680           274            8.144964e-13 
       331   28.288322           2641   339            333            1695           274            8.1806691e-13
       332   28.444184           2660   339            333            1714           274            8.2166088e-13
       333   28.57468            2674   339            333            1728           274            8.2525968e-13
       334   28.713291           2692   339            333            1746           274            8.2881233e-13
       335   28.915958           2711   339            333            1765           274            8.3238762e-13
       336   29.09913            2726   339            333            1780           274            8.3610347e-13
       337   29.249957           2737   339            333            1791           274            8.3989258e-13
       338   29.46307            2758   339            333            1811           275            8.4367824e-13
       339   29.704305           2775   339            333            1828           275            8.4758988e-13
       340   29.964949           2796   338            333            1847           278            8.5167521e-13
       341   30.190527           2810   338            333            1861           278            8.559021e-13 
       342   30.400422           2833   338            333            1884           278            8.6023103e-13
       343   30.636261           2852   338            333            1903           278            8.6464536e-13
       344   30.839301           2876   338            333            1927           278            8.6918794e-13
       345   31.064113           2891   338            333            1942           278            8.7379529e-13
       346   31.219931           2911   338            333            1962           278            8.785134e-13 
       347   31.429865           2929   338            333            1979           279            8.8321708e-13
       348   31.63298            2951   338            333            2001           279            8.8800454e-13
       349   31.838506           2968   338            333            2018           279            8.9288816e-13
       350   32.079643           2987   338            333            2037           279            8.9779644e-13
       351   32.263476           3012   337            333            2062           280            9.0281298e-13
       352   32.47247            3030   337            333            2080           280            9.0782682e-13
       353   32.64951            3056   337            333            2106           280            9.1290529e-13
       354   32.837492           3082   337            333            2132           280            9.1797772e-13
       355   32.983796           3103   337            333            2153           280            9.2306423e-13
       356   33.150294           3123   337            333            2173           280            9.2810636e-13
       357   33.327916           3148   337            333            2198           280            9.3313164e-13
       358   33.496691           3176   337            333            2226           280            9.3815383e-13
       359   33.629135           3203   337            333            2253           280            9.4316361e-13
       360   33.819306           3222   337            333            2272           280            9.4811507e-13
       361   33.987906           3248   337            333            2297           281            9.5305909e-13
       362   34.142427           3265   337            333            2314           281            9.5802606e-13
       363   34.30249            3281   337            333            2330           281            9.6288414e-13
       364   34.464149           3309   337            333            2358           281            9.6777785e-13
       365   34.627641           3332   337            333            2381           281            9.7264301e-13
       366   34.771537           3349   337            333            2397           282            9.7748806e-13
       367   34.943055           3372   337            333            2420           282            9.823179e-13 
       368   35.121319           3403   337            333            2450           283            9.8717224e-13
       369   35.251614           3419   337            333            2466           283            9.920231e-13 
       370   35.493734           3449   337            333            2496           283            9.9683991e-13
       371   35.714755           3486   337            333            2533           283            1.0016702e-12
       372   35.939499           3513   337            333            2560           283            1.0067023e-12
       373   36.124713           3536   337            333            2583           283            1.0117531e-12
       374   36.357112           3560   337            333            2607           283            1.0168251e-12
       375   36.562776           3584   337            333            2630           284            1.0219758e-12
       376   36.783654           3609   337            333            2655           284            1.0271915e-12
       377   37.004095           3631   337            333            2676           285            1.0325224e-12
       378   37.27084            3652   337            333            2697           285            1.037897e-12 
       379   37.543709           3677   337            333            2722           285            1.0434435e-12
       380   37.817577           3703   337            333            2748           285            1.0491575e-12
       381   38.076221           3725   337            333            2770           285            1.055015e-12 
       382   38.344325           3752   337            333            2797           285            1.060987e-12 
       383   38.566879           3775   337            333            2820           285            1.0669962e-12
       384   38.792048           3806   337            333            2850           286            1.073027e-12 
       385   39.048049           3828   337            333            2872           286            1.0791129e-12
       386   39.289671           3851   337            333            2895           286            1.0853073e-12
       387   39.510391           3877   337            333            2921           286            1.0915754e-12
       388   39.70249            3911   337            333            2954           287            1.0978696e-12
       389   39.947529           3934   337            333            2977           287            1.1041336e-12
       390   40.201867           3969   337            333            3012           287            1.1104616e-12
       391   40.431818           3995   337            333            3038           287            1.1168464e-12
       392   40.644441           4016   337            333            3059           287            1.1232248e-12
       393   40.857218           4057   337            333            3100           287            1.1295822e-12
       394   41.048582           4097   337            333            3140           287            1.1359347e-12
       395   41.230503           4127   337            333            3170           287            1.1422441e-12
       396   41.444226           4157   337            333            3200           287            1.148498e-12 
       397   41.615703           4179   337            333            3221           288            1.1547533e-12
       398   41.800525           4205   337            333            3247           288            1.160945e-12 
       399   41.981608           4235   337            333            3277           288            1.1671228e-12
       400   42.187255           4264   337            333            3306           288            1.1732519e-12
       401   42.41705            4286   337            333            3328           288            1.1793058e-12
       402   42.655302           4317   337            333            3359           288            1.1854759e-12
       403   42.861918           4351   337            333            3393           288            1.1917022e-12
       404   43.066725           4386   337            333            3427           289            1.1978916e-12
       405   43.29444            4407   337            332            3446           292            1.2040717e-12
       406   43.521626           4446   337            332            3485           292            1.2103319e-12
       407   43.818296           4482   337            332            3521           292            1.2166148e-12
       408   44.039232           4521   337            332            3559           293            1.2231212e-12
       409   44.321133           4556   337            332            3592           295            1.2296668e-12
       410   44.642988           4587   337            332            3622           296            1.2363886e-12
       411   44.878252           4617   337            332            3651           297            1.2432649e-12
       412   45.177214           4655   337            332            3688           298            1.2501777e-12
       413   45.42928            4680   337            332            3713           298            1.2573127e-12
       414   45.721869           4705   337            332            3736           300            1.2645153e-12
       415   45.970617           4740   337            332            3768           303            1.2718833e-12
       416   46.269429           4776   337            332            3802           305            1.2793125e-12
       417   46.511317           4817   337            332            3840           308            1.2869077e-12
       418   46.81079            4851   337            332            3873           309            1.294622e-12 
       419   47.078841           4897   337            332            3915           313            1.3024624e-12
       420   47.33839            4929   337            332            3943           317            1.3103623e-12
       421   47.581353           4961   337            332            3971           321            1.3182333e-12
       422   47.845113           4990   337            332            3995           326            1.3260886e-12
       423   48.060651           5034   337            332            4033           332            1.3340127e-12
       424   48.291868           5070   337            332            4061           340            1.3418963e-12
       425   48.540915           5107   337            332            4093           345            1.3497907e-12
       426   48.800738           5145   337            332            4121           355            1.3576911e-12
       427   49.035188           5182   337            332            4154           359            1.3656415e-12
       428   49.305852           5221   337            332            4185           367            1.3736026e-12
       429   49.525909           5255   337            332            4210           376            1.3815815e-12
       430   49.808751           5295   337            332            4245           381            1.3895274e-12
       431   50.07703            5332   337            332            4274           389            1.3975039e-12
       432   50.302713           5369   337            332            4304           396            1.4055453e-12
       433   50.517393           5411   337            332            4343           399            1.413499e-12 
       434   50.77461            5442   337            332            4369           404            1.4213858e-12
       435   51.022808           5485   337            332            4402           414            1.4293195e-12
       436   51.242618           5522   337            332            4426           427            1.4372297e-12
       437   51.506309           5570   337            332            4470           431            1.4451062e-12
       438   51.720638           5606   337            332            4497           440            1.4530608e-12
       439   51.921723           5642   337            332            4527           446            1.4609666e-12
       440   52.264424           5677   337            332            4552           456            1.4688049e-12
       441   52.531807           5712   337            332            4577           466            1.4768053e-12
       442   52.767487           5747   337            332            4602           476            1.4849273e-12
       443   53.057661           5784   337            332            4626           489            1.4930996e-12
       444   53.411807           5818   337            332            4654           495            1.5014174e-12
       445   53.754511           5860   337            332            4681           510            1.509833e-12 
       446   54.020559           5915   337            332            4732           514            1.5185181e-12
       447   54.33845            5963   337            332            4770           524            1.5273491e-12
       448   54.593749           5995   337            332            4793           533            1.5363719e-12
       449   54.898552           6026   337            332            4814           543            1.5454669e-12
       450   55.173949           6068   337            332            4840           559            1.5547345e-12
       451   55.497436           6114   337            332            4871           574            1.5640873e-12
       452   55.762613           6161   337            332            4905           587            1.573682e-12 
       453   56.042919           6205   337            332            4934           602            1.5833432e-12
       454   56.333766           6249   337            332            4964           616            1.5931049e-12
       455   56.62515            6290   337            332            4979           642            1.6030255e-12
       456   56.872494           6334   337            332            5002           663            1.6130371e-12
       457   57.145808           6375   337            332            5023           683            1.6230537e-12
       458   57.371732           6411   337            332            5047           695            1.6331305e-12
       459   57.648213           6450   337            332            5079           702            1.6431918e-12
       460   57.975442           6492   337            332            5102           721            1.6532491e-12
       461   58.225906           6526   337            332            5122           735            1.6634078e-12
       462   58.580486           6585   337            332            5160           756            1.6735384e-12
       463   58.819538           6631   337            332            5185           777            1.6837592e-12
       464   59.092924           6675   337            332            5212           794            1.6939037e-12
       465   59.336082           6721   337            332            5243           809            1.7040546e-12
       466   59.596899           6758   337            332            5263           826            1.7142152e-12
       467   59.863232           6804   337            332            5290           845            1.7243287e-12
       468   60.175286           6856   337            332            5323           864            1.7345488e-12
       469   60.438296           6891   337            332            5344           878            1.7448548e-12
       470   60.804956           6930   337            332            5353           908            1.7551735e-12
       471   61.092796           6971   337            332            5376           926            1.7656643e-12
       472   61.39654            7025   337            332            5409           947            1.7761459e-12
       473   61.737963           7078   337            332            5438           971            1.7867274e-12
       474   62.07406            7114   337            332            5456           989            1.7974905e-12
       475   62.409613           7160   337            332            5482           1009           1.8085099e-12
       476   62.741514           7214   337            332            5513           1032           1.8197428e-12
       477   63.092578           7270   337            332            5542           1059           1.8312013e-12
       478   63.42843            7331   337            332            5589           1073           1.8430615e-12
       479   63.768025           7380   337            332            5626           1085           1.8550172e-12
       480   64.128403           7433   337            332            5651           1113           1.867187e-12 
       481   64.433814           7479   337            332            5683           1127           1.8795558e-12
       482   64.786651           7536   337            332            5724           1143           1.8920491e-12
       483   65.101072           7576   337            332            5736           1171           1.9048463e-12
       484   65.431636           7633   337            332            5777           1187           1.9177892e-12
       485   65.757326           7702   337            332            5827           1206           1.9309426e-12
       486   66.076363           7765   337            332            5877           1219           1.9441417e-12
       487   66.386583           7809   337            332            5908           1232           1.9573914e-12
       488   66.682394           7878   337            332            5958           1251           1.9707178e-12
       489   67.006025           7939   337            332            6002           1268           1.9841581e-12
       490   67.379902           7994   337            332            6046           1279           1.9975894e-12
       491   67.675909           8050   337            332            6090           1291           2.0113029e-12
       492   67.963555           8107   337            332            6135           1303           2.0250853e-12
       493   68.282109           8170   337            332            6189           1312           2.0388592e-12
       494   68.680401           8238   337            332            6241           1328           2.0526831e-12
       495   69.014225           8302   337            332            6294           1339           2.0666813e-12
       496   69.357312           8349   337            332            6327           1353           2.0807436e-12
       497   69.646516           8402   337            332            6368           1365           2.0950765e-12
       498   69.984123           8472   337            332            6422           1381           2.1094744e-12
       499   70.287684           8530   337            332            6455           1406           2.1239672e-12
       500   70.676125           8590   337            332            6499           1422           2.1386319e-12
       501   71.045416           8653   337            332            6548           1436           2.1535592e-12
       502   71.409816           8716   337            332            6592           1455           2.1689656e-12
       503   71.766181           8781   337            332            6638           1474           2.1846941e-12
       504   72.133869           8851   337            332            6688           1494           2.2008049e-12
       505   72.491013           8915   337            332            6734           1512           2.2173854e-12
       506   72.842724           8994   337            332            6796           1529           2.2342365e-12
       507   73.215656           9069   337            332            6861           1539           2.2512896e-12
       508   73.638669           9133   337            332            6903           1561           2.2687455e-12
       509   73.984572           9200   337            332            6959           1572           2.2866313e-12
       510   74.377946           9275   337            332            7022           1584           2.304833e-12 
       511   74.759495           9356   336            332            7087           1601           2.323304e-12 
       512   75.143349           9440   336            332            7160           1612           2.3421471e-12
       513   75.530651           9518   336            332            7221           1629           2.3612709e-12
       514   75.941994           9604   336            332            7284           1652           2.3807229e-12
       515   76.335776           9683   336            332            7345           1670           2.4004923e-12
       516   76.711612           9758   336            332            7400           1690           2.4204753e-12
       517   77.090904           9827   336            332            7452           1707           2.4405982e-12
       518   77.486719           9914   336            332            7522           1724           2.4608618e-12
       519   77.878714           9998   336            332            7585           1745           2.4813165e-12
       520   78.314402          10082   336            332            7650           1764           2.5020186e-12
       521   78.783967          10166   336            332            7719           1779           2.5229453e-12
       522   79.240575          10234   336            332            7777           1789           2.5441003e-12
       523   79.685235          10311   336            332            7846           1797           2.5659086e-12
       524   80.110647          10393   336            332            7917           1808           2.588492e-12 
       525   80.582656          10487   336            332            7989           1830           2.611507e-12 
       526   81.016944          10586   336            332            8080           1838           2.6354857e-12
       527   81.46209           10691   336            332            8168           1855           2.6601891e-12
       528   81.915235          10780   336            332            8247           1865           2.6859802e-12
       529   82.393231          10898   336            332            8351           1879           2.7128624e-12
       530   82.903622          11007   336            332            8441           1898           2.740698e-12 
       531   83.370995          11101   336            332            8519           1914           2.7697214e-12
       532   83.893286          11210   336            332            8610           1932           2.7997951e-12
       533   84.376385          11337   336            332            8719           1950           2.8312497e-12
       534   84.882977          11450   336            332            8821           1961           2.8632936e-12
       535   85.378298          11564   336            332            8911           1985           2.8961682e-12
       536   85.909195          11690   336            332            9019           2003           2.9300344e-12
       537   86.446445          11804   336            332            9101           2035           2.9646728e-12
       538   87.015099          11922   336            332            9193           2061           3.0000979e-12
       539   87.573845          12048   336            332            9293           2087           3.0360248e-12
       540   88.1733            12185   336            332            9407           2110           3.072349e-12 
       541   88.754554          12306   336            332            9509           2129           3.1068441e-12
       542   89.378685          12440   336            332            9620           2152           3.1433846e-12
       543   90.018191          12562   336            332            9723           2171           3.1816588e-12
       544   90.67643           12714   336            332            9851           2195           3.2200089e-12
       545   91.36866           12860   336            332            9968           2224           3.2580353e-12
       546   92.048616          12995   336            331            10086          2242           3.2963535e-12
       547   92.755831          13116   336            331            10190          2259           3.3360105e-12
       548   93.479492          13251   336            331            10314          2270           3.3757687e-12
       549   94.235433          13410   336            331            10451          2292           3.4143085e-12
       550   95.012578          13540   336            331            10560          2313           3.4512219e-12
       551   95.804876          13688   336            331            10687          2334           3.4934978e-12
       552   96.588069          13852   336            331            10835          2350           3.5357985e-12
       553   97.458409          14005   336            331            10971          2367           3.575373e-12 
       554   98.338345          14140   336            331            11082          2391           3.6178777e-12
       555   99.155806          14289   336            331            11204          2418           3.657047e-12 
       556   100.04889          14446   336            331            11341          2438           3.6973902e-12
       557   100.90408          14573   336            331            11439          2467           3.7370555e-12
       558   101.7734           14748   336            331            11589          2492           3.7773763e-12
       559   102.66253          14904   336            331            11724          2513           3.821544e-12 
       560   103.60199          15069   336            331            11855          2547           3.8669641e-12
       561   104.56667          15212   336            331            11972          2573           3.9038894e-12
       562   105.54129          15362   336            331            12086          2609           3.9476424e-12
       563   106.51837          15525   336            331            12222          2636           3.987018e-12 
       564   107.55213          15677   335            331            12346          2665           4.0311618e-12
       565   108.66224          15829   335            330            12468          2696           4.0734878e-12
       566   109.71993          16021   334            330            12630          2727           4.1203871e-12
       567   110.79464          16199   334            329            12780          2756           4.1657799e-12
       568   111.88782          16365   334            329            12913          2789           4.2089425e-12
       569   113.04766          16546   334            329            13069          2814           4.2583138e-12
       570   114.34579          16716   333            329            13199          2855           4.3061302e-12
       571   115.57065          16886   333            329            13333          2891           4.3521375e-12
       572   116.74384          17065   333            328            13476          2928           4.3990727e-12
       573   117.94799          17224   333            328            13600          2963           4.444904e-12 
       574   119.26856          17378   333            327            13726          2992           4.4892837e-12
       575   120.53147          17542   333            327            13852          3030           4.5312837e-12
       576   121.8068           17710   333            327            13989          3061           4.5764415e-12
       577   123.07036          17890   333            327            14133          3097           4.6246843e-12
       578   124.33938          18084   333            327            14294          3130           4.6749525e-12
       579   125.73224          18278   333            327            14451          3167           4.7303488e-12
       580   127.18594          18466   333            327            14611          3195           4.7751849e-12
       581   128.60016          18678   333            327            14797          3221           4.8228273e-12
       582   129.98552          18883   333            327            14971          3252           4.8780189e-12
       583   131.31308          19057   333            326            15118          3280           4.9323307e-12
       584   132.69426          19268   332            326            15301          3309           4.9862383e-12
       585   134.18822          19485   332            326            15474          3353           5.0462463e-12
       586   135.68568          19641   332            324            15590          3395           5.0960339e-12
       587   137.15446          19812   331            323            15731          3427           5.1482108e-12
       588   138.68048          20032   331            321            15917          3463           5.2011708e-12
       589   140.37982          20238   331            320            16092          3495           5.2574953e-12
       590   142.00499          20440   331            320            16256          3533           5.3166815e-12
       591   143.61359          20651   331            320            16429          3571           5.3750262e-12
       592   145.35289          20867   330            319            16602          3616           5.4329519e-12
       593   147.09568          21056   330            319            16756          3651           5.4871623e-12
       594   148.7866           21294   330            319            16950          3695           5.546123e-12 
       595   150.5809           21527   330            319            17137          3741           5.5964941e-12
       596   152.35488          21746   330            318            17306          3792           5.6505026e-12
       597   154.13316          21949   330            318            17472          3829           5.7089793e-12
       598   155.98751          22197   329            318            17684          3866           5.7817868e-12
       599   157.81489          22429   329            318            17879          3903           5.837298e-12 
       600   159.66675          22663   328            318            18072          3945           5.904934e-12 
       601   161.45884          22845   328            317            18216          3984           5.9604214e-12
       602   163.32346          23042   327            317            18370          4028           6.018862e-12 
       603   165.17491          23281   327            317            18564          4073           6.0717831e-12
       604   167.08995          23505   327            317            18756          4105           6.1371373e-12
       605   169.02026          23721   327            316            18938          4140           6.1950375e-12
       606   170.98355          23940   327            315            19112          4186           6.2648799e-12
       607   172.86193          24198   327            315            19320          4236           6.3314969e-12
       608   174.65094          24445   325            314            19511          4295           6.3992773e-12
       609   176.51829          24718   325            314            19744          4335           6.4641663e-12
       610   178.43305          24914   325            314            19890          4385           6.5153484e-12
       611   180.48882          25194   324            313            20135          4422           6.5853128e-12
       612   182.47351          25454   323            312            20350          4469           6.6498281e-12
       613   184.44195          25659   323            311            20515          4510           6.7108762e-12
       614   186.51487          25988   321            310            20796          4561           6.7887051e-12
       615   188.62135          26221   319            308            20977          4617           6.8581349e-12
       616   190.7431           26420   318            306            21128          4668           6.9110561e-12
       617   192.85001          26695   317            304            21359          4715           6.9841958e-12
       618   194.95738          26934   316            302            21558          4758           7.051871e-12 
       619   197.07113          27137   315            300            21703          4819           7.1165923e-12
       620   199.26759          27387   313            298            21909          4867           7.1881893e-12
       621   201.39735          27659   310            296            22125          4928           7.2443169e-12
       622   203.49867          27921   309            295            22337          4980           7.3038723e-12
       623   205.60541          28174   308            294            22547          5025           7.3693625e-12
       624   207.71684          28404   308            292            22728          5076           7.4342547e-12
       625   209.80661          28649   307            292            22929          5121           7.4889663e-12
       626   211.88392          28925   306            290            23163          5166           7.5554603e-12
       627   213.99466          29196   301            288            23395          5212           7.6244415e-12
       628   216.1036           29461   297            284            23602          5278           7.6808732e-12
       629   218.17262          29739   293            282            23826          5338           7.7489897e-12
       630   220.33799          30028   291            280            24065          5392           7.8140503e-12
       631   222.42325          30290   289            275            24282          5444           7.8796057e-12
       632   224.5201           30512   288            272            24434          5518           7.9360259e-12
       633   226.57313          30770   287            271            24624          5588           7.995044e-12 
       634   228.64997          31042   284            266            24830          5662           8.065373e-12 
       635   230.71382          31270   282            264            24999          5725           8.120143e-12 
       636   232.79044          31535   277            258            25193          5807           8.1934899e-12
[...]
       838   733.22648          59103   1              0              29258          29844          9.9171805e-12
       839   736.30396          59215   1              0              29244          29970          9.9082977e-12
       840   739.47614          59336   1              0              29235          30100          9.9275579e-12
       841   742.5892           59450   1              0              29231          30218          9.9342441e-12
       842   745.67507          59498   1              0              29175          30322          9.9291958e-12
       843   748.82269          59546   1              0              29121          30424          9.9376389e-12
       844   751.94554          59608   1              0              29059          30548          9.9241272e-12
       845   755.08463          59736   1              0              29070          30665          9.9324755e-12
       846   758.25079          59884   1              0              29082          30801          9.9524726e-12
       847   761.38383          59960   1              0              29050          30909          9.9416079e-12
       848   764.54584          60095   1              0              29064          31030          9.9394333e-12
       849   767.74123          60165   1              0              29027          31137          9.9353029e-12
       850   771.10793          60314   1              0              29065          31248          9.9481742e-12
       851   774.31569          60414   1              0              29054          31359          9.9672009e-12
       852   777.54447          60461   1              0              28971          31489          9.9679703e-12
       853   780.78587          60544   1              0              28945          31598          9.9568879e-12
       854   784.03474          60599   1              0              28889          31709          9.9382554e-12
       855   787.25645          60656   1              0              28830          31825          9.9379889e-12
       856   790.46696          60755   1              0              28805          31949          9.9495588e-12
       857   793.69286          60833   1              0              28765          32067          9.9475863e-12
       858   796.96038          60971   1              0              28794          32176          9.9794223e-12
       859   800.25284          61087   1              0              28805          32281          9.9719318e-12
       860   803.6603           61183   1              0              28790          32392          9.9772828e-12
       861   806.94048          61259   1              0              28764          32494          9.9817228e-12
       862   810.27765          61362   1              0              28755          32606          9.9818562e-12
       863   813.62952          61499   1              0              28765          32733          9.9898548e-12
       864   816.97052          61570   1              0              28724          32845          9.9838518e-12
       865   820.29881          61654   1              0              28707          32946          9.9844139e-12
       866   823.66138          61712   1              0              28669          33042          9.9854882e-12
       867   827.01281          61825   1              0              28671          33153          9.9908025e-12
       868   830.36857          61925   1              0              28672          33252          1.001162e-11 
       869   833.77527          62027   1              0              28683          33343          1.000738e-11 
       870   837.3193           62083   1              0              28660          33422          1.0011038e-11
       871   840.70504          62179   1              0              28640          33538          1.0021019e-11
       872   844.14561          62230   1              0              28587          33642          1.0008088e-11
       873   847.57499          62338   1              0              28587          33750          1.0011709e-11
       874   850.99859          62533   1              0              28699          33833          1.0040878e-11
       875   854.4436           62594   1              0              28647          33946          1.0041035e-11
       876   857.89263          62706   1              0              28663          34042          1.0035221e-11
       877   861.38146          62794   1              0              28666          34127          1.0039794e-11
       878   864.89687          62881   1              0              28643          34237          1.0053323e-11
       879   868.45465          62998   1              0              28669          34328          1.0044112e-11
       880   872.0617           63053   1              0              28614          34438          1.0041581e-11
       881   875.60904          63146   1              0              28588          34557          1.0039541e-11
       882   879.11117          63235   1              0              28571          34663          1.0050243e-11
       883   882.6567           63310   1              0              28563          34746          1.004735e-11 
       884   886.20806          63439   1              0              28577          34861          1.0052325e-11
       885   889.81772          63495   1              0              28533          34961          1.0058512e-11
       886   893.39139          63573   1              0              28504          35068          1.0046712e-11
       887   896.94529          63698   1              0              28511          35186          1.0069802e-11
       888   900.52588          63804   1              0              28531          35272          1.007403e-11 
       889   904.11632          63904   1              0              28532          35371          1.0080859e-11
       890   907.86843          64000   1              0              28540          35459          1.0083567e-11
       891   911.54531          64092   1              0              28542          35549          1.0086276e-11
       892   915.18048          64179   1              0              28509          35669          1.0097514e-11
       893   918.9307           64211   1              0              28446          35764          1.006898e-11 
       894   922.60577          64300   1              0              28435          35864          1.0069712e-11
       895   926.25689          64411   1              0              28451          35959          1.0078734e-11
       896   929.94828          64519   1              0              28457          36061          1.0077071e-11
       897   933.65624          64627   1              0              28480          36146          1.0090537e-11
       898   937.40957          64790   1              0              28551          36238          1.0123455e-11
       899   941.12644          64863   1              0              28521          36341          1.0117283e-11
       900   944.9975           64923   1              0              28483          36439          1.0105401e-11
       901   948.76974          64947   1              0              28425          36521          1.0096471e-11
       902   952.4902           65102   1              0              28479          36622          1.0118763e-11
       903   956.29228          65163   1              0              28444          36718          1.0115286e-11
       904   960.08916          65264   1              0              28440          36823          1.0126571e-11
       905   963.85927          65332   1              0              28402          36929          1.0119089e-11
       906   967.6176           65444   1              0              28420          37023          1.0121714e-11
       907   971.43683          65503   1              0              28385          37117          1.0112949e-11
       908   975.24335          65623   1              0              28409          37213          1.0127397e-11
       909   979.07396          65704   1              0              28382          37321          1.0142482e-11
       910   983.07714          65802   1              0              28392          37409          1.015033e-11 
       911   986.93587          65957   1              0              28434          37522          1.0181796e-11
       912   990.81725          66015   1              0              28409          37605          1.0158274e-11
       913   994.78266          66068   1              0              28364          37703          1.0150336e-11
       914   998.69028          66154   1              0              28354          37799          1.0142445e-11
       915   1002.6026          66268   1              0              28355          37912          1.0162068e-11
       916   1006.5519          66336   1              0              28341          37994          1.0153888e-11
       917   1010.5013          66501   1              0              28413          38087          1.0191725e-11
       918   1014.5064          66542   1              0              28357          38184          1.0169092e-11
       919   1018.5241          66645   1              0              28367          38277          1.0188706e-11
       920   1022.6696          66728   1              0              28350          38377          1.0183148e-11
       921   1026.7142          66797   1              0              28322          38474          1.0184751e-11
       922   1030.7677          66900   1              0              28311          38588          1.0184255e-11
       923   1034.8307          66936   1              0              28261          38674          1.0177347e-11
       924   1038.8331          67011   1              0              28248          38762          1.016497e-11 
       925   1042.8531          67167   1              0              28321          38845          1.0173388e-11
       926   1046.8871          67244   1              0              28303          38940          1.0180142e-11
       927   1050.9473          67324   1              0              28291          39032          1.0198637e-11
       928   1055.0371          67363   1              0              28234          39128          1.0168179e-11
       929   1059.0961          67441   1              0              28229          39211          1.0179459e-11
       930   1063.334           67581   1              0              28274          39306          1.0194177e-11
       931   1067.4105          67668   1              0              28271          39396          1.0190526e-11
       932   1071.5888          67773   1              0              28288          39484          1.0186573e-11
       933   1075.774           67823   1              0              28222          39600          1.0179646e-11
       934   1079.8517          67904   1              0              28202          39701          1.0188338e-11
       935   1083.9805          67998   1              0              28191          39806          1.0210065e-11
       936   1088.129           68098   1              0              28220          39877          1.0220874e-11
       937   1092.2565          68191   1              0              28218          39972          1.02333e-11  
       938   1096.407           68277   1              0              28205          40071          1.0240735e-11
       939   1100.5975          68395   1              0              28235          40159          1.0238931e-11
       940   1104.9327          68506   1              0              28244          40261          1.0236661e-11
       941   1109.1352          68620   1              0              28277          40342          1.0242586e-11
       942   1113.3211          68691   1              0              28256          40434          1.0254804e-11
       943   1117.5127          68764   1              0              28227          40536          1.0257458e-11
       944   1121.7003          68878   1              0              28252          40625          1.0264557e-11
       945   1125.9116          69020   1              0              28300          40719          1.0280796e-11
       946   1130.1583          69099   1              0              28285          40813          1.0284491e-11
       947   1134.4196          69176   1              0              28272          40903          1.0285165e-11
       948   1138.6533          69302   1              0              28294          41007          1.0305686e-11
       949   1142.8994          69348   1              0              28246          41101          1.0292893e-11
       950   1147.3502          69458   1              0              28265          41192          1.0293278e-11
       951   1151.6914          69541   1              0              28264          41276          1.0295647e-11
       952   1155.9962          69639   1              0              28270          41368          1.0308555e-11
       953   1160.4059          69696   1              0              28220          41475          1.0295284e-11
       954   1164.7144          69824   1              0              28245          41578          1.0309858e-11
       955   1169.0401          69918   1              0              28232          41685          1.0309431e-11
       956   1173.4216          70050   1              0              28272          41777          1.0321012e-11
       957   1177.8027          70143   1              0              28272          41870          1.0316233e-11
       958   1182.1964          70179   1              0              28190          41988          1.0310839e-11
       959   1186.525           70239   1              0              28141          42097          1.0324686e-11
       960   1191.102           70351   1              0              28141          42209          1.0328788e-11
       961   1195.5726          70433   1              0              28121          42311          1.0330691e-11
       962   1200.0362          70561   1              0              28153          42407          1.0331396e-11
       963   1204.4887          70651   1              0              28156          42494          1.0334469e-11
       964   1208.9609          70711   1              0              28114          42596          1.0339302e-11
       965   1213.3693          70763   1              0              28057          42705          1.0328129e-11
       966   1217.7795          70858   1              0              28061          42796          1.0323621e-11
       967   1222.2226          70938   1              0              28045          42892          1.0309651e-11
       968   1226.6657          71035   1              0              28041          42993          1.0335386e-11
       969   1231.1851          71101   1              0              28017          43083          1.0332851e-11
       970   1235.8448          71217   1              0              28040          43176          1.0349655e-11
       971   1240.3158          71309   1              0              28028          43280          1.0350686e-11
       972   1244.8298          71407   1              0              28034          43372          1.035207e-11 
       973   1249.2996          71474   1              0              28024          43449          1.034763e-11 
       974   1253.8311          71606   1              0              28065          43540          1.0351384e-11
       975   1258.3707          71710   1              0              28078          43631          1.0344391e-11
       976   1262.943           71807   1              0              28080          43726          1.0368368e-11
       977   1267.499           71834   1              0              28024          43809          1.0369432e-11
       978   1272.0667          71912   1              0              27991          43920          1.0366144e-11
       979   1276.6426          72034   1              0              28037          43996          1.0375775e-11
       980   1281.4663          72099   1              0              28004          44094          1.0374748e-11
       981   1286.0853          72259   1              0              28079          44179          1.0392169e-11
       982   1290.7168          72348   1              0              28053          44294          1.0384906e-11
       983   1295.3338          72494   1              0              28120          44373          1.0401936e-11
       984   1299.938           72539   1              0              28071          44467          1.0404745e-11
       985   1304.5427          72576   1              0              28018          44557          1.0385442e-11
       986   1309.16            72630   1              0              27993          44636          1.0384693e-11
       987   1313.841           72741   1              0              28024          44716          1.0397431e-11
       988   1318.5134          72862   1              0              28054          44807          1.0414138e-11
       989   1323.2204          72942   1              0              28043          44898          1.0418899e-11
       990   1328.1368          73042   1              0              28056          44985          1.0424985e-11
       991   1332.9298          73121   1              0              28054          45066          1.0427203e-11
       992   1337.6644          73195   1              0              28039          45155          1.0430976e-11
       993   1342.5102          73264   1              0              28026          45237          1.0426746e-11
       994   1347.3098          73395   1              0              28070          45324          1.0437659e-11
       995   1352.1275          73476   1              0              28066          45409          1.0419242e-11
       996   1356.9035          73558   1              0              28057          45500          1.0416912e-11
       997   1361.6715          73704   1              0              28120          45583          1.0437702e-11
       998   1366.5178          73798   1              0              28127          45670          1.0432312e-11
       999   1371.3447          73872   1              0              28111          45760          1.0437274e-11
      1000   1376.3639          73997   1              0              28157          45839          1.0452578e-11
      1001   1381.243           74046   1              0              28108          45937          1.0466616e-11
      1002   1386.1344          74077   1              0              28039          46037          1.0454961e-11
      1003   1391.0385          74156   1              0              28034          46121          1.0457462e-11
      1004   1395.9073          74205   1              0              27998          46206          1.0460445e-11
      1005   1400.7893          74326   1              0              28017          46308          1.0483442e-11
      1006   1405.7393          74433   1              0              28027          46405          1.0489224e-11
      1007   1410.6516          74541   1              0              28046          46494          1.0486173e-11
      1008   1415.5765          74668   1              0              28080          46587          1.0506921e-11
      1009   1420.5422          74737   1              0              28056          46680          1.0494394e-11
      1010   1425.6988          74895   1              0              28132          46762          1.0509913e-11
      1011   1430.6434          74981   1              0              28111          46869          1.0511512e-11
      1012   1435.6499          75052   1              0              28112          46939          1.0495809e-11
      1013   1440.6157          75111   1       