LAMMPS (23 Jun 2022 - Update 4)
  using 1 OpenMP thread(s) per MPI task
package omp 0
using multi-threaded neighbor list subroutines
#-----------------------------------------------------------------------------#
#                NUFEB Simulation: Heterotrophic Biofilm Growth               #
#-----------------------------------------------------------------------------#


#-----------------------------System Settings---------------------------------#

units si                                    # using si units (m, s, kg)
atom_style      coccus                      # using nufeb coccus atom style
atom_modify     map array sort 10 0         # map array - find atoms using indices
		                            # sort every 10

boundary        pp pp ff                    # periodic boundaries in x and y
                                            # fixed boundary in z

newton          off                         # forces between local and ghost
                                            # atoms are computed in each
					     # processor without communication

processors      * * 1                       # processor grid

comm_modify     vel yes                     # communicate velocities for ghost atoms

read_data       atom_ch.in	             # read atom.in file which defines domain size
Reading data file ...
  orthogonal box = (0 0 0) to (6e-05 6e-05 6e-05)
  4 by 4 by 1 MPI processor grid
  reading atoms ...
  150 atoms
  read_data CPU = 0.037 seconds
                                            # and initial atoms


#--------------------Microbes and Functional Groups-------------------------#

group           CROSS1   type 1               # assign type 1,2 atoms to CROSS group
50 atoms in group CROSS1
group           CROSS2   type 2
50 atoms in group CROSS2
group		CHEATER  type 3
50 atoms in group CHEATER
group           dead     type 4
0 atoms in group dead

neighbor        5e-7 bin                   # setting neighbour skin distance and style

neigh_modify    check yes                  # rebuild neighbour list if any atom
                                           # had moved more than half the skin distance


#--------------------------Mesh Grid and Substrates--------------------------#

# defining grid sytle, substrate names, and grid size
grid_style      nufeb/chemostat 3 sub metab1 metab2 5e-6

# set diffusion boundary conditions and initial concentrations (liquid:kg/m3)
grid_modify     set sub      pp pp nd  3e-4
No /omp style for force computation currently active
grid_modify     set metab1   pp pp nd  1e-4
No /omp style for force computation currently active
grid_modify     set metab2   pp pp nd  1e-4
No /omp style for force computation currently active


#--------------------------Biological Processes-------------------------------#

# heterotrophs growth
fix growth_cross1 CROSS1 nufeb/growth/cross1 sub 3.5e-5 metab2 4e-3 metab1 growth 0.0024 yield 0.6 decay 2e-6 metab1_exp 20

fix growth_cross2 CROSS2 nufeb/growth/cross2 sub 3.5e-5 metab1 4e-3 metab2 growth 0.0024 yield 0.6 decay 2e-6 metab2_exp 20

fix growth_cheater CHEATER nufeb/growth/cheater sub 3.5e-5 metab1 6e-4 metab2 6e-4 growth 0.0024 yield 0.6 decay 2e-6
# heterotrophs division, division diameter: 1.36e-6
fix div1 CROSS1 nufeb/division/coccus 1.36e-6 1234
fix div2 CROSS2 nufeb/division/coccus 1.36e-6 1235
fix div3 CHEATER nufeb/division/coccus 1.36e-6 1236

fix death1 CROSS1 nufeb/death/diameter dead 5.43e-7
fix death2 CROSS2 nufeb/death/diameter dead 5.43e-7
fix death3 CHEATER nufeb/death/diameter dead 5.43e-7

#---------------------------Physical Processes--------------------------------#

pair_style  gran/hooke/history 1e-4 NULL 1e-5 NULL 0.0 0    # pairwise interaction
pair_coeff  * *                                             # between atoms

# pairwise interaction between z-wall and atoms
fix wall all wall/gran hooke/history 1e-3 NULL 1e-4 NULL 0 0 zplane 0.0 1e-04

fix vis all viscous 1e-5                                    # viscous damping force

fix grav all gravity 9.81 vector 0.0 0.0 -1.0

fix nve all nve/limit 1e-7                                  # NVE integration with
                                                            # maximum distance limit


#---------------------------Post-Physical Processes---------------------------#

fix coeff_sub all nufeb/diffusion_coeff sub ratio 0.8       # defining diffusion coeff in the biofilm
fix coeff_metab1 all nufeb/diffusion_coeff metab1 ratio 0.8    # region is 80% of the value in liquid
fix coeff_metab2 all nufeb/diffusion_coeff metab2 ratio 0.8

#---------------------------Chemical Processes---------------------------------#

fix diff_sub all nufeb/diffusion_reaction sub 1e-9        # diffusion reaction for updating
fix diff_metab1 all nufeb/diffusion_reaction metab1 4e-9     # distribusion of substrate concentration
fix diff_metab2 all nufeb/diffusion_reaction metab2 4e-9

#--------------------------Computations and Outputs----------------------------#

variable mass equal "mass(all)"                             # total mass
variable ncross1 equal "count(CROSS1)"                      # total # of CROSS1
variable ncross2 equal "count(CROSS2)"                      # total # of CROSS2
variable ncheater equal "count(CHEATER)"
variable ndead equal "count(dead)"

shell mkdir vtk_NEPS_ch2                                            # dump vtk files to /vtk folder
dump du1 all vtk 10 vtk_NEPS_ch2/dump*.vtu id type diameter         # require build NUFEB with vtk option
dump du2 all grid/vtk 10 vtk_NEPS_ch2/dump_%_*.vti con rea den gro

#dump du3 all movie 10 movie.avi type diameter view 80 60    # dump video
#dump_modify du3 acolor 1 blue acolor 2 lightgrey framerate 10


                                                            # dump hdf5 files to /hdf5 folder
#shell mkdir hdf5                                           # require build NUFEB with hdf5 option
#dump du3 all nufeb/hdf5 10 dump.h5 id type x y z vx vy vz fx fy fz radius conc reac

thermo_style custom step cpu atoms v_ncross1 v_ncross2 v_ncheater v_ndead v_mass     # screen and log outputs
thermo 1
thermo_modify   lost ignore

#-----------------------------------Run----------------------------------------#

# issue run command, define timesteps for physical (pairdt) and chemical (diffdt) processes
run_style nufeb diffdt 1e-4 difftol 1e-6 pairdt 1e-2 pairtol 1 pairmax 1000 diffmax 5000

timestep 3000                                               # define biological timesteps (1000s)

run 900                                                    # growing biofilm for 900x1000s
Generated 0 of 6 mixed pair_coeff terms from geometric mixing rule
Last active /omp style is pair_style gran/hooke/history/omp
Neighbor list info ...
  update every 1 steps, delay 10 steps, check yes
  max neighbors/atom: 2000, page size: 100000
  master list distance cutoff = 2.49e-06
  ghost atom cutoff = 2.49e-06
  binsize = 1.245e-06, bins = 49 49 49
  1 neighbor lists, perpetual/occasional/extra = 1 0 0
  (1) pair gran/hooke/history/omp, perpetual
      attributes: half, newton off, size, history, omp
      pair build: half/size/bin/newtoff/omp
      stencil: full/bin/3d
      bin: standard
Per MPI rank memory allocation (min/avg/max) = 11.02 | 11.02 | 11.02 Mbytes
   Step          CPU          Atoms      v_ncross1      v_ncross2      v_ncheater      v_ndead         v_mass    
         0   0                    150   50             50             50             0              1.3295396e-13
         1   0.38765743           249   85             82             82             0              1.618928e-13 
         2   0.77450253           367   120            123            124            0              1.8023723e-13
         3   1.1372125            432   134            144            154            0              1.9480354e-13
         4   1.4569211            464   142            151            171            0              2.0802497e-13
         5   1.7636346            488   145            163            180            0              2.2081045e-13
         6   2.0709926            512   149            170            193            0              2.3345312e-13
         7   2.3604268            539   157            172            210            0              2.4603781e-13
         8   2.6429741            567   165            182            220            0              2.5858213e-13
         9   2.8853969            595   172            195            228            0              2.7105593e-13
        10   3.1297065            631   182            209            240            0              2.8347408e-13
        11   3.3459424            660   188            216            256            0              2.9589003e-13
        12   3.5515926            686   191            229            266            0              3.0823209e-13
        13   3.7467743            710   196            234            280            0              3.2054051e-13
        14   3.9357012            734   207            239            288            0              3.32784e-13  
        15   4.1229212            762   214            247            301            0              3.449893e-13 
        16   4.2848692            788   219            253            316            0              3.5712159e-13
        17   4.5344945            819   229            261            329            0              3.6918662e-13
        18   4.6866454            838   233            262            343            0              3.8121352e-13
        19   4.842954             867   242            269            356            0              3.931598e-13 
        20   5.013035             897   249            277            371            0              4.0504633e-13
        21   5.1409107            922   254            282            386            0              4.1688269e-13
        22   5.2860536            944   258            290            396            0              4.2866971e-13
        23   5.4132599            976   264            298            414            0              4.4034552e-13
        24   5.5523251            994   270            302            422            0              4.5196042e-13
        25   5.6786897           1022   278            308            436            0              4.6351611e-13
        26   5.7927618           1050   282            314            454            0              4.7498863e-13
        27   5.9203797           1073   289            320            464            0              4.8639343e-13
        28   6.0415989           1102   295            329            478            0              4.9773703e-13
        29   6.1542329           1131   301            339            491            0              5.0902028e-13
        30   6.2799216           1157   307            347            503            0              5.2020477e-13
        31   6.3905071           1179   311            352            516            0              5.3134589e-13
        32   6.5032188           1206   316            360            530            0              5.424279e-13 
        33   6.6034164           1230   323            366            541            0              5.5341344e-13
        34   6.722483            1257   332            371            554            0              5.6434733e-13
        35   6.828422            1280   332            377            571            0              5.7520994e-13
        36   6.931625            1317   341            384            592            0              5.860301e-13 
        37   7.028008            1334   341            390            603            0              5.9675979e-13
        38   7.118507            1356   346            398            612            0              6.0735965e-13
        39   7.2117426           1378   351            404            623            0              6.1791791e-13
        40   7.3308714           1403   354            407            642            0              6.2840405e-13
        41   7.420456            1421   355            409            657            0              6.3880984e-13
        42   7.5313841           1436   357            413            666            0              6.4917941e-13
        43   7.6420109           1459   363            416            680            0              6.5948839e-13
        44   7.7356284           1477   364            422            691            0              6.6976626e-13
        45   7.8209376           1500   369            428            703            0              6.79945e-13  
        46   7.8965008           1515   371            432            712            0              6.9004922e-13
        47   7.9881778           1542   379            438            725            0              7.0007388e-13
        48   8.0830511           1567   384            444            739            0              7.1002663e-13
        49   8.15091             1583   388            446            749            0              7.199165e-13 
        50   8.2739057           1599   392            451            756            0              7.2972609e-13
        51   8.34028             1625   397            452            776            0              7.394522e-13 
        52   8.4170921           1646   402            453            791            0              7.4906648e-13
        53   8.4917934           1666   406            459            801            0              7.5859682e-13
        54   8.5769668           1695   412            463            820            0              7.6805514e-13
        55   8.6558569           1721   415            468            838            0              7.7743784e-13
        56   8.7407222           1744   419            471            854            0              7.8678318e-13
        57   8.8254316           1760   420            472            868            0              7.9605958e-13
        58   8.9049995           1779   423            477            879            0              8.0526452e-13
        59   8.9846728           1797   426            477            894            0              8.144198e-13 
        60   9.0951323           1815   429            479            907            0              8.2350946e-13
        61   9.1756481           1840   433            483            924            0              8.3253807e-13
        62   9.2703524           1859   436            488            935            0              8.4148835e-13
        63   9.3617083           1883   440            493            950            0              8.5037028e-13
        64   9.4347892           1908   446            496            966            0              8.5922391e-13
        65   9.5185257           1929   451            501            977            0              8.6802769e-13
        66   9.5877355           1949   459            502            988            0              8.7673601e-13
        67   9.6757677           1967   462            506            999            0              8.8536665e-13
        68   9.7579003           1975   465            507            1003           0              8.9392193e-13
        69   9.851158            1993   469            509            1015           0              9.024125e-13 
        70   9.9485144           2017   473            517            1027           0              9.1087776e-13
        71   10.268692           2035   477            520            1038           0              9.1930502e-13
        72   10.347725           2054   479            523            1052           0              9.2763788e-13
        73   10.423115           2073   481            527            1065           0              9.3591837e-13
        74   10.515849           2091   481            530            1080           0              9.4414836e-13
        75   10.593886           2101   482            532            1087           0              9.5233359e-13
        76   10.679058           2120   484            539            1097           0              9.604702e-13 
        77   10.783808           2133   484            543            1106           0              9.6856384e-13
        78   10.861934           2149   485            549            1115           0              9.7664244e-13
        79   10.942249           2174   490            549            1135           0              9.8467858e-13
        80   11.041411           2189   492            550            1147           0              9.9265439e-13
        81   11.108297           2215   495            553            1167           0              1.000549e-12 
        82   11.19996            2233   496            558            1179           0              1.0083938e-12
        83   11.286549           2252   499            563            1190           0              1.0161975e-12
        84   11.389687           2277   505            565            1207           0              1.0239869e-12
        85   11.48275            2288   506            568            1214           0              1.0317418e-12
        86   11.562743           2302   509            569            1224           0              1.0394724e-12
        87   11.649808           2317   511            572            1234           0              1.047169e-12 
        88   11.706419           2335   516            577            1242           0              1.0548351e-12
        89   11.765795           2359   519            578            1262           0              1.0624099e-12
        90   11.882371           2368   521            578            1269           0              1.0699069e-12
        91   11.956895           2387   523            580            1284           0              1.0774068e-12
        92   12.062265           2410   526            581            1303           0              1.0848647e-12
        93   12.149191           2432   531            584            1317           0              1.0923098e-12
        94   12.240459           2451   535            586            1330           0              1.099732e-12 
        95   12.326329           2466   538            586            1342           0              1.1071257e-12
        96   12.382287           2486   541            586            1359           0              1.1144916e-12
        97   12.450375           2501   545            590            1366           0              1.121761e-12 
        98   12.540488           2517   547            591            1379           0              1.1289837e-12
        99   12.618357           2539   551            594            1394           0              1.1361968e-12
       100   12.735076           2550   553            597            1400           0              1.1433587e-12
       101   12.808324           2559   555            599            1405           0              1.1504682e-12
       102   12.902269           2576   558            604            1414           0              1.1575498e-12
       103   12.992036           2598   559            604            1435           0              1.1645981e-12
       104   13.061457           2618   560            606            1452           0              1.1716179e-12
       105   13.143721           2636   564            607            1465           0              1.1785729e-12
       106   13.218421           2651   565            609            1477           0              1.1855063e-12
       107   13.297241           2664   568            609            1487           0              1.1924012e-12
       108   13.374232           2677   570            610            1497           0              1.1992785e-12
       109   13.455148           2690   570            610            1510           0              1.20612e-12  
       110   13.556493           2705   573            611            1521           0              1.2129318e-12
       111   13.634607           2719   573            615            1531           0              1.2197016e-12
       112   13.717527           2740   573            622            1545           0              1.2264406e-12
       113   13.807558           2762   574            626            1562           0              1.2331352e-12
       114   13.895955           2775   576            626            1573           0              1.239821e-12 
       115   14.031099           2791   576            629            1586           0              1.2464903e-12
       116   14.127983           2804   578            629            1597           0              1.2531503e-12
       117   14.207169           2817   579            630            1608           0              1.2597981e-12
       118   14.365597           2833   580            631            1622           0              1.2664204e-12
       119   14.454284           2850   582            633            1635           0              1.2730737e-12
       120   14.572934           2864   583            634            1647           0              1.2796976e-12
       121   14.654596           2880   583            635            1662           0              1.2862658e-12
       122   14.740944           2890   584            635            1671           0              1.2928209e-12
       123   14.826175           2915   584            636            1695           0              1.2993697e-12
       124   14.930564           2928   584            637            1707           0              1.3058843e-12
       125   15.011905           2945   584            638            1723           0              1.312412e-12 
       126   15.086464           2963   587            638            1738           0              1.3188885e-12
       127   15.213134           2975   588            638            1749           0              1.3253237e-12
       128   15.354586           2991   589            638            1764           0              1.3317687e-12
       129   15.469643           3010   589            640            1781           0              1.338185e-12 
       130   15.597287           3030   589            642            1799           0              1.3446229e-12
       131   15.713983           3045   592            642            1811           0              1.3510419e-12
       132   15.802306           3059   595            642            1822           0              1.3574734e-12
       133   15.956675           3076   597            643            1836           0              1.3638907e-12
       134   16.062645           3100   601            644            1855           0              1.3703409e-12
       135   16.171644           3109   602            644            1863           0              1.3767881e-12
       136   16.251402           3121   603            644            1874           0              1.3832448e-12
       137   16.329124           3137   603            645            1889           0              1.3896201e-12
       138   16.405546           3154   603            646            1905           0              1.3959825e-12
       139   16.513182           3168   603            647            1918           0              1.4022987e-12
       140   16.640828           3183   603            649            1931           0              1.4086361e-12
       141   16.718384           3200   603            651            1946           0              1.4149727e-12
       142   16.837158           3218   604            651            1963           0              1.4212936e-12
       143   16.912549           3235   605            652            1978           0              1.4276302e-12
       144   17.033204           3249   606            652            1991           0              1.4339218e-12
       145   17.147221           3261   607            652            2002           0              1.4402729e-12
       146   17.257411           3279   607            652            2020           0              1.4466014e-12
       147   17.384067           3298   608            655            2035           0              1.4529444e-12
       148   17.4989             3309   609            655            2045           0              1.4593059e-12
       149   17.63038            3327   610            655            2062           0              1.4656817e-12
       150   17.827299           3352   610            655            2087           0              1.4720828e-12
       151   17.974503           3376   611            655            2110           0              1.4785734e-12
       152   18.070009           3391   612            655            2124           0              1.4851098e-12
       153   18.173783           3407   613            655            2139           0              1.4916341e-12
       154   18.270221           3428   613            656            2159           0              1.4981604e-12
       155   18.39297            3438   613            656            2169           0              1.5046684e-12
       156   18.525535           3456   614            657            2185           0              1.511204e-12 
       157   18.662833           3466   615            658            2193           0              1.5177698e-12
       158   18.806496           3485   615            659            2211           0              1.5243669e-12
       159   18.955261           3504   615            660            2229           0              1.5310137e-12
       160   19.146584           3527   615            660            2252           0              1.5377128e-12
       161   19.247576           3544   615            661            2268           0              1.5444323e-12
       162   19.389379           3561   615            661            2285           0              1.5511455e-12
       163   19.509707           3580   616            661            2303           0              1.5578816e-12
       164   19.643418           3598   617            661            2320           0              1.5646467e-12
       165   19.793364           3620   617            662            2341           0              1.5714533e-12
       166   19.938039           3644   618            662            2364           0              1.5783067e-12
       167   20.107874           3660   618            663            2379           0              1.5851906e-12
       168   20.24664            3680   618            663            2399           0              1.592132e-12 
       169   20.491051           3705   620            663            2422           0              1.5990973e-12
       170   20.664542           3724   620            663            2441           0              1.6061038e-12
       171   20.819388           3743   621            663            2459           0              1.6131269e-12
       172   20.940205           3760   622            663            2475           0              1.6202107e-12
       173   21.104266           3780   622            664            2494           0              1.6272955e-12
       174   21.250656           3796   622            664            2510           0              1.6344457e-12
       175   21.379203           3815   622            665            2528           0              1.6416265e-12
       176   21.515664           3840   624            666            2550           0              1.6488192e-12
       177   21.63737            3874   625            666            2583           0              1.6560262e-12
       178   21.769222           3903   627            667            2609           0              1.6632387e-12
       179   21.901355           3922   628            667            2627           0              1.6704613e-12
       180   22.028703           3947   628            668            2651           0              1.6776932e-12
       181   22.165596           3962   629            668            2665           0              1.684926e-12 
       182   22.315402           3972   629            668            2675           0              1.6921823e-12
       183   22.434694           3992   630            669            2693           0              1.6994813e-12
       184   22.581363           4013   630            670            2713           0              1.7067825e-12
       185   22.697504           4033   631            672            2730           0              1.714103e-12 
       186   22.815829           4056   631            672            2753           0              1.7214319e-12
       187   22.953407           4088   631            672            2785           0              1.7287563e-12
       188   23.062835           4106   631            672            2803           0              1.7360976e-12
       189   23.186172           4131   631            672            2828           0              1.7434173e-12
       190   23.415346           4152   632            672            2848           0              1.7507512e-12
       191   23.549663           4172   632            672            2868           0              1.7580965e-12
       192   23.682144           4208   632            672            2904           0              1.7654644e-12
       193   23.813519           4228   632            672            2924           0              1.7728385e-12
       194   23.958999           4252   634            672            2946           0              1.7802272e-12
       195   24.117132           4275   635            673            2967           0              1.7876452e-12
       196   24.261864           4298   636            673            2989           0              1.7951104e-12
       197   24.399661           4325   637            673            3015           0              1.8025995e-12
       198   24.53917            4349   637            673            3039           0              1.8100906e-12
       199   24.674687           4368   637            673            3058           0              1.8175999e-12
       200   24.825014           4389   638            673            3078           0              1.8251171e-12
       201   24.946712           4414   638            673            3103           0              1.8326311e-12
       202   25.091987           4438   638            673            3127           0              1.840128e-12 
       203   25.203183           4459   639            674            3146           0              1.8476592e-12
       204   25.322566           4483   639            675            3169           0              1.8551552e-12
       205   25.468451           4513   639            675            3199           0              1.8626445e-12
       206   25.637713           4540   639            675            3226           0              1.8701775e-12
       207   25.783249           4558   639            675            3244           0              1.8777098e-12
       208   25.918646           4588   639            675            3274           0              1.8852629e-12
       209   26.028869           4620   641            675            3304           0              1.8928193e-12
       210   26.243777           4645   641            675            3329           0              1.9003352e-12
       211   26.419828           4662   641            675            3346           0              1.9078778e-12
       212   26.589527           4688   642            675            3371           0              1.9154713e-12
       213   26.701032           4717   642            675            3400           0              1.9231148e-12
       214   26.834219           4742   642            675            3425           0              1.9307402e-12
       215   26.966148           4773   642            675            3456           0              1.9383911e-12
       216   27.116804           4803   642            676            3485           0              1.9460409e-12
       217   27.260632           4832   642            676            3514           0              1.9537079e-12
       218   27.412688           4856   642            676            3538           0              1.9613946e-12
       219   27.54034            4879   642            676            3561           0              1.9691118e-12
       220   27.685996           4899   642            676            3581           0              1.9768241e-12
       221   27.843902           4921   642            676            3603           0              1.9845303e-12
       222   28.000257           4950   642            676            3632           0              1.9922841e-12
       223   28.126588           4983   642            677            3664           0              2.0000806e-12
       224   28.27531            5014   642            677            3695           0              2.007857e-12 
       225   28.431495           5041   643            677            3721           0              2.0156581e-12
       226   28.583958           5065   643            677            3745           0              2.0234846e-12
       227   28.738063           5097   644            677            3776           0              2.0313604e-12
       228   28.885116           5116   645            677            3794           0              2.0392508e-12
       229   29.031853           5146   646            677            3823           0              2.0471583e-12
       230   29.21813            5173   646            677            3850           0              2.0550879e-12
       231   29.371622           5195   647            677            3871           0              2.0630483e-12
       232   29.523737           5224   647            677            3900           0              2.0710598e-12
       233   29.672859           5254   648            677            3929           0              2.0790776e-12
       234   29.83699            5278   648            677            3953           0              2.087125e-12 
       235   29.969645           5307   648            677            3982           0              2.0952232e-12
       236   30.123413           5337   648            677            4012           0              2.1033137e-12
       237   30.278659           5356   648            677            4031           0              2.1114262e-12
       238   30.437275           5377   648            677            4052           0              2.1195766e-12
       239   30.598688           5407   649            677            4081           0              2.1277456e-12
       240   30.777632           5440   650            678            4112           0              2.1359509e-12
       241   30.961358           5475   650            678            4147           0              2.1441708e-12
       242   31.092677           5502   650            678            4174           0              2.1524786e-12
       243   31.255047           5532   650            679            4203           0              2.160761e-12 
       244   31.409563           5555   650            679            4226           0              2.1690827e-12
       245   31.582018           5579   650            679            4250           0              2.1774189e-12
       246   31.730733           5607   650            679            4278           0              2.1858145e-12
       247   31.882461           5635   650            679            4306           0              2.1942076e-12
       248   32.04867            5664   650            680            4334           0              2.2026144e-12
       249   32.19777            5686   650            680            4356           0              2.2110624e-12
       250   32.384091           5724   650            680            4394           0              2.2195094e-12
       251   32.528688           5768   651            681            4436           0              2.2279774e-12
       252   32.690995           5789   651            681            4457           0              2.2364513e-12
       253   32.842721           5824   651            681            4492           0              2.2449583e-12
       254   33.000391           5851   651            681            4519           0              2.2534834e-12
       255   33.159555           5886   651            681            4554           0              2.2620368e-12
       256   33.323905           5908   651            681            4576           0              2.2706164e-12
       257   33.454847           5944   651            681            4612           0              2.2792395e-12
       258   33.594039           5978   651            681            4646           0              2.2878259e-12
       259   33.734304           6013   651            681            4681           0              2.296401e-12 
       260   33.902183           6043   651            681            4711           0              2.304978e-12 
       261   34.062629           6087   651            681            4755           0              2.3135407e-12
       262   34.219036           6119   651            681            4787           0              2.322128e-12 
       263   34.377613           6154   651            681            4822           0              2.3307288e-12
       264   34.524221           6178   651            681            4846           0              2.3393465e-12
       265   34.65858            6212   651            681            4880           0              2.3479841e-12
       266   34.797494           6247   651            681            4915           0              2.3565904e-12
       267   34.95818            6269   651            681            4937           0              2.3651968e-12
       268   35.112947           6307   651            681            4975           0              2.3738162e-12
       269   35.272881           6334   651            681            5002           0              2.3824578e-12
       270   35.441279           6371   651            681            5039           0              2.3911055e-12
       271   35.649243           6396   651            681            5064           0              2.3997292e-12
       272   35.777996           6431   651            681            5099           0              2.4083049e-12
       273   35.911484           6467   651            682            5134           0              2.4168633e-12
       274   36.058531           6502   651            682            5169           0              2.4254023e-12
       275   36.195987           6536   651            682            5203           0              2.4339452e-12
       276   36.343128           6568   651            682            5235           0              2.4424621e-12
       277   36.500409           6604   651            682            5271           0              2.4509888e-12
       278   36.658715           6634   651            682            5301           0              2.4595248e-12
       279   36.783312           6667   651            682            5334           0              2.4680965e-12
       280   36.967695           6696   651            682            5363           0              2.4766125e-12
       281   37.092271           6724   651            682            5391           0              2.4851408e-12
       282   37.221554           6748   651            682            5415           0              2.4936072e-12
       283   37.398973           6783   651            682            5450           0              2.5020672e-12
       284   37.553753           6817   651            682            5484           0              2.5105927e-12
       285   37.741293           6854   651            682            5521           0              2.5190962e-12
       286   37.912664           6888   651            682            5555           0              2.5276644e-12
       287   38.068716           6918   651            682            5585           0              2.5362421e-12
       288   38.228781           6953   651            682            5620           0              2.5448241e-12
       289   38.394919           6988   651            682            5655           0              2.5534217e-12
       290   38.582461           7023   651            682            5690           0              2.5620169e-12
       291   38.735294           7051   651            682            5718           0              2.5705671e-12
       292   38.887431           7085   651            682            5752           0              2.5791554e-12
       293   39.041511           7119   652            682            5785           0              2.5877645e-12
       294   39.210427           7158   652            682            5824           0              2.5963577e-12
       295   39.34622            7205   652            682            5871           0              2.6049683e-12
       296   39.532049           7242   652            682            5908           0              2.6135677e-12
       297   39.682999           7276   652            682            5942           0              2.622198e-12 
       298   39.862638           7307   652            682            5973           0              2.6308472e-12
       299   40.059595           7341   652            682            6007           0              2.6395076e-12
       300   40.283672           7378   652            682            6044           0              2.6482187e-12
       301   40.4599             7410   652            682            6076           0              2.6569728e-12
       302   40.617007           7444   652            682            6110           0              2.6657142e-12
       303   40.797807           7494   653            682            6159           0              2.6744862e-12
       304   40.980331           7530   653            682            6195           0              2.6832641e-12
       305   41.161824           7554   653            682            6219           0              2.6920773e-12
       306   41.364927           7583   653            682            6248           0              2.7009196e-12
       307   41.545233           7621   653            682            6286           0              2.7098108e-12
       308   41.722763           7653   654            682            6316           1              2.7187114e-12
       309   41.904906           7681   654            682            6344           1              2.7276612e-12
       310   42.110314           7710   654            682            6373           1              2.7366133e-12
       311   42.283603           7745   654            682            6408           1              2.7455714e-12
       312   42.485142           7787   654            682            6450           1              2.7545448e-12
       313   42.667752           7818   654            682            6481           1              2.7635726e-12
       314   42.860071           7859   654            682            6521           2              2.7726232e-12
       315   43.035883           7896   654            682            6558           2              2.7816871e-12
       316   43.195187           7922   654            682            6584           2              2.7907206e-12
       317   43.378798           7948   654            682            6610           2              2.799805e-12 
       318   43.542325           7996   654            682            6658           2              2.8088915e-12
       319   43.74148            8028   654            682            6690           2              2.8180279e-12
       320   43.987534           8059   654            682            6721           2              2.8271741e-12
       321   44.176593           8096   654            682            6758           2              2.8363601e-12
       322   44.351683           8133   654            682            6794           3              2.8455447e-12
       323   44.555061           8160   654            682            6821           3              2.854743e-12 
       324   44.735176           8201   654            682            6862           3              2.8639774e-12
       325   44.930323           8240   654            682            6901           3              2.8732173e-12
       326   45.117192           8286   654            682            6947           3              2.8824745e-12
       327   45.31584            8327   654            682            6986           5              2.8917465e-12
       328   45.487294           8362   654            682            7021           5              2.9010413e-12
       329   45.672459           8393   654            682            7051           6              2.9103363e-12
       330   45.87583            8438   654            682            7096           6              2.9196502e-12
       331   46.0483             8474   654            682            7132           6              2.928946e-12 
       332   46.219513           8511   654            682            7169           6              2.938234e-12 
       333   46.396694           8544   654            682            7202           6              2.9474811e-12
       334   46.558313           8583   654            682            7241           6              2.9567303e-12
       335   46.738005           8617   654            682            7275           6              2.9659895e-12
       336   46.932602           8667   654            682            7323           8              2.9752361e-12
       337   47.115875           8706   654            682            7361           9              2.9844925e-12
       338   47.298651           8745   654            682            7400           9              2.9937275e-12
       339   47.441221           8783   654            682            7438           9              3.0029613e-12
       340   47.677862           8808   654            682            7462           10             3.0121901e-12
       341   47.854843           8841   654            682            7494           11             3.0213972e-12
       342   48.035708           8885   654            682            7538           11             3.0305938e-12
       343   48.202558           8913   654            682            7565           12             3.0397795e-12
       344   48.376181           8942   654            682            7593           13             3.0489543e-12
       345   48.544607           8988   654            682            7639           13             3.058146e-12 
       346   48.710491           9021   654            682            7671           14             3.0673e-12   
       347   48.875517           9069   654            682            7719           14             3.0764362e-12
       348   49.038695           9118   654            682            7766           16             3.085548e-12 
       349   49.217207           9152   654            681            7799           18             3.0946281e-12
       350   49.422105           9195   654            681            7841           19             3.1037202e-12
       351   49.596282           9229   654            681            7875           19             3.1128084e-12
       352   49.776824           9262   654            681            7907           20             3.1218909e-12
       353   49.953885           9302   654            681            7946           21             3.1309549e-12
       354   50.132191           9331   654            681            7974           22             3.1399933e-12
       355   50.307154           9372   654            681            8014           23             3.1490503e-12
       356   50.510761           9411   654            681            8052           24             3.1580569e-12
       357   50.847665           9446   654            681            8087           24             3.1670975e-12
       358   51.052892           9488   654            681            8128           25             3.1761348e-12
       359   51.256105           9530   654            681            8169           26             3.185174e-12 
       360   51.468555           9572   654            681            8210           27             3.1942141e-12
       361   51.658102           9616   654            681            8253           28             3.2032425e-12
       362   51.827844           9664   654            681            8297           32             3.2122688e-12
       363   52.001162           9701   654            681            8329           37             3.2212483e-12
       364   52.172634           9732   654            681            8359           38             3.2302219e-12
       365   52.348989           9771   654            681            8396           40             3.2391773e-12
       366   52.515833           9805   654            681            8427           43             3.2481056e-12
       367   52.703943           9841   654            681            8463           43             3.2569873e-12
       368   52.896746           9881   654            681            8501           45             3.2659187e-12
       369   53.074391           9914   654            681            8532           47             3.2748589e-12
       370   53.289509           9958   654            681            8568           55             3.2837807e-12
       371   53.492544           9995   654            681            8604           56             3.29269e-12  
       372   53.654788          10029   654            681            8637           57             3.3016068e-12
       373   53.840808          10071   654            681            8675           61             3.3105109e-12
       374   54.048037          10119   654            681            8722           62             3.3193956e-12
       375   54.236297          10165   654            681            8764           66             3.3282949e-12
       376   54.41267           10200   654            681            8795           70             3.3371579e-12
       377   54.603387          10236   654            681            8828           73             3.3460087e-12
       378   54.814378          10284   654            681            8872           77             3.3548432e-12
       379   55.020245          10327   654            681            8913           79             3.3637324e-12
       380   55.25946           10377   654            681            8962           80             3.3726285e-12
       381   55.423779          10408   654            681            8992           81             3.381516e-12 
       382   55.602058          10436   654            681            9016           85             3.3903791e-12
       383   55.810747          10469   654            681            9046           88             3.3992467e-12
       384   56.019473          10508   654            681            9082           91             3.4081354e-12
       385   56.217028          10551   654            681            9123           93             3.4170282e-12
       386   56.437311          10587   654            680            9158           95             3.4259285e-12
       387   56.616327          10630   654            680            9198           98             3.4348934e-12
       388   56.804852          10660   654            680            9227           99             3.4438238e-12
       389   56.992719          10698   654            680            9259           105            3.4527427e-12
       390   57.216572          10742   654            680            9295           113            3.4616646e-12
       391   57.424844          10777   654            680            9327           116            3.4705622e-12
       392   57.626685          10814   654            680            9360           120            3.4794867e-12
       393   57.818724          10847   654            680            9388           125            3.4884062e-12
       394   58.016207          10881   654            680            9418           129            3.4972937e-12
       395   58.22408           10923   654            680            9457           132            3.5061839e-12
       396   58.410823          10973   654            680            9504           135            3.5150938e-12
       397   58.592173          11015   654            680            9541           140            3.5239899e-12
       398   58.780675          11056   654            680            9578           144            3.5328642e-12
       399   58.988451          11087   654            680            9602           151            3.5417474e-12
       400   59.215075          11123   654            680            9632           157            3.5506324e-12
       401   59.431574          11167   654            680            9674           159            3.5594906e-12
       402   59.633079          11219   654            680            9717           168            3.5683941e-12
       403   59.838542          11266   654            680            9764           168            3.5772861e-12
       404   60.035975          11315   654            679            9810           172            3.5861667e-12
       405   60.221924          11360   654            679            9852           175            3.5950559e-12
       406   60.416096          11401   654            679            9890           178            3.6039047e-12
       407   60.606758          11441   654            679            9927           181            3.6127373e-12
       408   60.794474          11484   654            678            9964           188            3.6215682e-12
       409   60.988879          11516   654            678            9994           190            3.6303902e-12
       410   61.2343            11567   654            678            10041          194            3.6392258e-12
       411   61.44778           11602   654            678            10067          203            3.6480635e-12
       412   61.650263          11635   654            677            10095          209            3.6568997e-12
       413   61.866177          11678   654            677            10133          214            3.6657408e-12
       414   62.085592          11715   654            677            10165          219            3.674582e-12 
       415   62.297024          11756   654            677            10198          227            3.6834467e-12
       416   62.514942          11795   654            677            10232          232            3.6923022e-12
       417   62.728635          11837   654            677            10271          235            3.7011631e-12
       418   62.951063          11877   654            676            10306          241            3.7100141e-12
       419   63.169585          11918   654            676            10343          245            3.7188628e-12
       420   63.411933          11958   654            676            10378          250            3.7277289e-12
       421   63.625636          11989   654            676            10404          255            3.7365838e-12
       422   63.847801          12026   654            676            10435          261            3.7454404e-12
       423   64.056539          12071   654            676            10476          265            3.7543145e-12
       424   64.276089          12112   654            676            10516          266            3.7631704e-12
       425   64.497805          12156   654            676            10555          271            3.7720159e-12
       426   64.705917          12198   654            676            10591          277            3.7808695e-12
       427   64.924287          12242   654            676            10627          285            3.7897258e-12
       428   65.147719          12284   654            676            10666          288            3.7985685e-12
       429   65.360089          12329   654            676            10707          292            3.8074304e-12
       430   65.617842          12364   654            676            10739          295            3.816279e-12 
       431   65.817784          12400   654            676            10770          300            3.8251409e-12
       432   66.109516          12444   654            676            10810          304            3.8339911e-12
       433   66.30163           12482   654            676            10840          312            3.8428298e-12
       434   66.513211          12532   654            676            10883          319            3.8516324e-12
       435   66.717542          12565   654            676            10909          326            3.8604401e-12
       436   66.919296          12612   654            676            10949          333            3.8692398e-12
       437   67.125141          12645   654            676            10973          342            3.8780436e-12
       438   67.346893          12688   654            676            11009          349            3.8868233e-12
       439   67.592526          12721   654            676            11028          363            3.8956039e-12
       440   67.851492          12764   654            675            11060          375            3.904464e-12 
       441   68.086946          12810   654            675            11101          380            3.9132952e-12
       442   68.277292          12852   654            675            11133          390            3.9221551e-12
       443   68.488662          12884   654            674            11162          394            3.9309611e-12
       444   68.714085          12923   654            671            11196          402            3.9397505e-12
       445   68.942732          12964   654            671            11225          414            3.94856e-12  
       446   69.196388          13017   654            671            11267          425            3.9573834e-12
       447   69.441293          13055   654            671            11301          429            3.9662479e-12
       448   69.660287          13095   654            671            11333          437            3.9751281e-12
       449   69.865685          13138   654            671            11369          444            3.9840156e-12
       450   70.16052           13171   654            671            11386          460            3.9928553e-12
       451   70.388812          13218   653            671            11429          465            4.001732e-12 
       452   70.618312          13265   653            671            11461          480            4.0105885e-12
       453   70.853347          13307   652            671            11497          487            4.0194726e-12
       454   71.078             13352   651            670            11537          494            4.0283738e-12
       455   71.285317          13391   651            670            11563          507            4.0372853e-12
       456   71.500269          13429   651            670            11595          513            4.0461651e-12
       457   71.727333          13475   649            670            11635          521            4.0550372e-12
       458   71.954757          13523   649            670            11676          528            4.0639216e-12
       459   72.174764          13571   649            670            11716          536            4.0728038e-12
       460   72.438102          13604   649            670            11744          541            4.0816781e-12
       461   72.674648          13637   649            669            11770          549            4.090542e-12 
       462   72.913298          13675   649            669            11801          556            4.0994419e-12
       463   73.144923          13722   649            669            11842          562            4.1083433e-12
       464   73.378169          13767   649            669            11879          570            4.1172346e-12
       465   73.616428          13812   649            669            11915          579            4.1261256e-12
       466   73.850762          13851   649            668            11940          594            4.1350489e-12
       467   74.096828          13888   649            668            11964          607            4.1439764e-12
       468   74.355185          13925   648            668            11995          614            4.1529427e-12
       469   74.577716          13969   648            666            12024          631            4.1619354e-12
       470   74.859747          14030   647            664            12077          642            4.170917e-12 
       471   75.101929          14085   647            664            12118          656            4.1799163e-12
       472   75.320902          14140   647            664            12164          665            4.1889513e-12
       473   75.528165          14181   647            664            12196          674            4.1979574e-12
       474   75.750798          14231   647            664            12241          679            4.2069485e-12
       475   75.990268          14277   647            664            12279          687            4.2159339e-12
       476   76.199121          14310   647            664            12304          695            4.2249325e-12
       477   76.408039          14353   645            663            12331          714            4.233906e-12 
       478   76.631385          14399   645            663            12366          725            4.2428548e-12
       479   76.848707          14435   644            663            12394          734            4.2518263e-12
       480   77.165141          14479   644            663            12430          742            4.2607773e-12
       481   77.398023          14518   644            663            12459          752            4.2697479e-12
       482   77.640355          14563   644            663            12495          761            4.2787186e-12
       483   77.893631          14611   644            661            12531          775            4.2876855e-12
       484   78.118956          14654   644            660            12561          789            4.2966858e-12
       485   78.351387          14704   643            660            12596          805            4.3056657e-12
       486   78.567503          14738   643            660            12617          818            4.3146478e-12
       487   78.799121          14770   643            660            12636          831            4.3236225e-12
       488   79.017515          14808   643            660            12654          851            4.3325976e-12
       489   79.259054          14846   643            660            12683          860            4.3415711e-12
       490   79.568684          14890   643            659            12720          868            4.3505542e-12
       491   79.832019          14935   642            659            12756          878            4.3595608e-12
       492   80.079485          14985   642            659            12790          894            4.3685721e-12
       493   80.325372          15036   642            659            12820          915            4.3775742e-12
       494   80.58045           15071   642            659            12842          928            4.3865911e-12
       495   80.823785          15121   642            659            12882          938            4.3956227e-12
       496   81.197898          15167   642            659            12916          950            4.4046662e-12
       497   81.443785          15213   642            658            12950          963            4.4137156e-12
       498   81.684167          15258   641            656            12980          981            4.4227639e-12
       499   81.900036          15301   641            655            13010          995            4.4318035e-12
       500   82.213086          15353   640            654            13054          1005           4.4408286e-12
       501   82.474156          15390   640            654            13076          1020           4.4498684e-12
       502   82.753828          15436   639            654            13112          1031           4.4589178e-12
       503   83.000926          15480   639            654            13144          1043           4.4679939e-12
       504   83.250271          15521   639            654            13176          1052           4.4770522e-12
       505   83.501974          15566   639            653            13214          1060           4.4861209e-12
       506   83.741661          15606   639            653            13241          1073           4.4951845e-12
       507   84.005979          15651   639            653            13275          1084           4.5042527e-12
       508   84.270397          15709   639            653            13326          1091           4.513339e-12 
       509   84.524161          15753   639            653            13358          1103           4.5224328e-12
       510   84.836182          15790   639            653            13380          1118           4.5315309e-12
       511   85.113294          15836   639            653            13414          1130           4.5406402e-12
       512   85.365384          15883   639            653            13447          1144           4.5497758e-12
       513   85.621936          15917   639            653            13476          1149           4.5589005e-12
       514   85.872508          15952   639            653            13498          1162           4.5680223e-12
       515   86.138911          16000   638            653            13533          1176           4.5771398e-12
       516   86.396885          16034   638            652            13548          1196           4.5862623e-12
       517   86.649922          16073   638            652            13578          1205           4.5954008e-12
       518   86.912612          16116   637            652            13606          1221           4.6045684e-12
       519   87.184895          16153   637            651            13630          1235           4.6137329e-12
       520   87.52972           16197   637            651            13661          1248           4.6229306e-12
       521   87.801782          16230   637            650            13681          1262           4.6321776e-12
       522   88.079664          16274   637            650            13711          1276           4.641429e-12 
       523   88.373715          16322   637            650            13747          1288           4.650701e-12 
       524   88.651666          16371   637            650            13782          1302           4.6600425e-12
       525   88.909729          16412   635            650            13810          1317           4.6693789e-12
       526   89.167194          16468   635            650            13856          1327           4.6787349e-12
       527   89.407883          16521   634            650            13895          1342           4.6881283e-12
       528   89.679776          16578   633            650            13943          1352           4.697501e-12 
       529   89.913078          16619   631            650            13977          1361           4.7068935e-12
       530   90.261711          16670   631            650            14017          1372           4.7163011e-12
       531   90.536344          16727   630            649            14060          1388           4.7257266e-12
       532   90.807745          16763   630            649            14084          1400           4.7351555e-12
       533   91.079473          16818   629            649            14127          1413           4.7446078e-12
       534   91.34674           16869   629            649            14163          1428           4.754085e-12 
       535   91.586834          16917   628            649            14204          1436           4.7635608e-12
       536   91.848108          16973   628            649            14242          1454           4.7730286e-12
       537   92.138813          17018   628            649            14277          1464           4.7825078e-12
       538   92.41289           17068   628            649            14317          1474           4.7920196e-12
       539   92.701396          17109   628            649            14350          1482           4.8015608e-12
       540   93.071612          17156   627            649            14383          1497           4.8111696e-12
       541   93.389719          17198   627            649            14414          1508           4.8208042e-12
       542   93.665929          17250   626            648            14449          1527           4.8305014e-12
       543   93.931223          17302   626            648            14487          1541           4.8402255e-12
       544   94.185928          17345   625            647            14519          1554           4.8499232e-12
       545   94.476264          17392   625            647            14547          1573           4.8596449e-12
       546   94.748472          17431   625            646            14569          1591           4.8693896e-12
       547   95.057727          17487   625            646            14617          1599           4.8791913e-12
       548   95.333214          17536   624            646            14646          1620           4.8890246e-12
       549   95.635192          17579   624            646            14678          1631           4.898899e-12 
       550   95.966217          17625   622            645            14711          1647           4.9088113e-12
       551   96.38357           17673   622            645            14746          1660           4.9187413e-12
       552   96.692591          17718   621            645            14778          1674           4.9286817e-12
       553   97.00177           17763   621            645            14806          1691           4.9386594e-12
       554   97.310523          17816   621            644            14848          1703           4.948644e-12 
       555   97.621724          17872   621            644            14891          1716           4.9586621e-12
       556   97.898611          17911   621            643            14913          1734           4.9687075e-12
       557   98.213268          17962   621            642            14958          1741           4.9787458e-12
       558   98.53053           18016   621            641            15003          1751           4.9888482e-12
       559   98.852213          18070   620            640            15050          1760           4.9989815e-12
       560   99.211903          18123   619            640            15093          1771           5.0091517e-12
       561   99.50925           18178   619            640            15133          1786           5.0193224e-12
       562   99.79087           18221   619            638            15164          1800           5.02952e-12  
       563   100.07636          18271   619            637            15202          1813           5.0397519e-12
       564   100.35634          18311   618            637            15232          1824           5.0500003e-12
       565   100.68794          18368   618            637            15272          1841           5.0602516e-12
       566   100.97217          18415   618            637            15309          1851           5.0705464e-12
       567   101.29387          18466   618            637            15349          1862           5.0808231e-12
       568   101.60561          18517   618            637            15384          1878           5.0911211e-12
       569   101.92278          18580   616            637            15425          1902           5.1014564e-12
       570   102.2577           18624   616            636            15456          1916           5.111828e-12 
       571   102.55208          18672   616            635            15486          1935           5.1222087e-12
       572   102.84892          18722   616            635            15520          1951           5.1326266e-12
       573   103.19164          18772   616            635            15557          1964           5.1430504e-12
       574   103.5331           18822   616            634            15592          1980           5.1534851e-12
       575   103.85743          18879   616            634            15633          1996           5.1639703e-12
       576   104.18228          18934   616            632            15672          2014           5.1744611e-12
       577   104.51693          18993   615            631            15722          2025           5.1849772e-12
       578   104.83769          19034   614            631            15753          2036           5.1955039e-12
       579   105.17069          19077   614            631            15781          2051           5.2060401e-12
       580   105.55406          19135   613            631            15826          2065           5.2166057e-12
       581   105.88351          19185   613            631            15860          2081           5.2271935e-12
       582   106.20737          19236   613            630            15895          2098           5.2378234e-12
       583   106.52717          19287   613            630            15929          2115           5.2484587e-12
       584   106.86715          19338   613            630            15968          2127           5.2591203e-12
       585   107.18403          19396   613            630            16008          2145           5.2697918e-12
       586   107.50653          19454   613            630            16050          2161           5.2804671e-12
       587   107.85028          19517   613            629            16101          2174           5.2911736e-12
       588   108.15283          19567   613            629            16140          2185           5.3019602e-12
       589   108.4712           19618   613            629            16176          2200           5.3127384e-12
       590   108.84669          19653   613            628            16201          2211           5.3235627e-12
       591   109.11102          19696   613            628            16225          2230           5.3344036e-12
       592   109.45678          19766   612            628            16279          2247           5.3452303e-12
       593   109.79759          19826   612            628            16324          2262           5.3561435e-12
       594   110.12026          19867   612            628            16350          2277           5.3671075e-12
       595   110.44829          19914   611            628            16384          2291           5.3780967e-12
       596   110.74848          19971   611            628            16432          2300           5.3891125e-12
       597   111.06845          20016   610            627            16460          2319           5.4001104e-12
       598   111.49686          20077   609            626            16511          2331           5.4111872e-12
       599   111.81566          20135   609            626            16551          2349           5.4222738e-12
       600   112.22696          20187   609            625            16594          2359           5.4333867e-12
       601   112.54616          20234   609            624            16626          2375           5.4445677e-12
       602   112.89284          20296   609            624            16672          2391           5.4557983e-12
       603   113.27346          20354   609            624            16713          2408           5.4670494e-12
       604   113.64904          20413   609            624            16750          2430           5.4783546e-12
       605   113.99939          20460   609            624            16785          2442           5.4897001e-12
       606   114.32547          20528   609            624            16836          2459           5.5010705e-12
       607   114.68613          20585   609            624            16880          2472           5.5124906e-12
       608   115.03214          20628   609            624            16909          2486           5.5239653e-12
       609   115.39445          20681   609            623            16947          2502           5.5354544e-12
       610   115.81471          20733   609            623            16986          2515           5.5469907e-12
       611   116.21854          20792   608            621            17030          2533           5.5585477e-12
       612   116.60868          20856   608            621            17078          2549           5.5701604e-12
       613   116.98903          20896   607            621            17106          2562           5.5818135e-12
       614   117.3923           20971   607            621            17163          2580           5.5935486e-12
       615   117.75915          21031   607            621            17202          2601           5.6053681e-12
       616   118.1502           21089   607            621            17242          2619           5.6171857e-12
       617   118.55735          21144   607            621            17280          2636           5.6290609e-12
       618   118.92011          21190   607            620            17314          2649           5.6410044e-12
       619   119.35999          21252   607            620            17362          2663           5.6529797e-12
       620   119.79143          21296   607            620            17389          2680           5.6650292e-12
       621   120.18352          21357   607            620            17439          2691           5.677171e-12 
       622   120.58917          21415   607            620            17484          2704           5.6893234e-12
       623   121.00829          21473   607            620            17526          2720           5.7015492e-12
       624   121.45017          21537   607            620            17564          2746           5.7138423e-12
       625   121.85383          21598   607            620            17602          2769           5.7262068e-12
       626   122.23389          21654   605            620            17637          2792           5.7386414e-12
       627   122.6161           21720   605            620            17690          2805           5.7510981e-12
       628   123.00342          21766   604            620            17730          2812           5.7636416e-12
       629   123.37577          21817   604            620            17770          2823           5.7762192e-12
       630   123.81075          21878   604            620            17813          2841           5.7888454e-12
       631   124.2073           21942   604            618            17859          2861           5.8015506e-12
       632   124.57166          22017   603            618            17914          2882           5.8143065e-12
       633   125.0207           22074   603            618            17960          2893           5.8271266e-12
       634   125.46312          22140   603            616            18016          2905           5.8400072e-12
       635   125.85551          22198   603            616            18055          2924           5.8529538e-12
       636   126.25122          22250   603            616            18084          2947           5.8659228e-12
[...]
       735   207.53758          29800   584            584            23579          5053           7.6791402e-12
       736   209.26437          29917   583            583            23679          5072           7.7077265e-12
       737   211.23832          30036   582            583            23776          5095           7.7366736e-12
       738   213.24126          30136   581            582            23852          5121           7.7658421e-12
       739   215.31176          30245   581            581            23927          5156           7.7952933e-12
       740   217.44656          30338   580            581            24000          5177           7.8252322e-12
       741   219.4275           30456   579            580            24089          5208           7.8554856e-12
       742   221.47829          30554   579            580            24167          5228           7.8863138e-12
       743   223.53238          30657   579            580            24240          5258           7.9177288e-12
       744   225.62775          30751   579            580            24312          5280           7.9495779e-12
       745   227.71331          30873   578            580            24409          5306           7.9818949e-12
       746   229.86925          31006   578            580            24524          5324           8.0147212e-12
       747   232.03223          31122   578            580            24613          5351           8.0482578e-12
       748   234.14772          31260   578            580            24729          5373           8.0826469e-12
       749   236.36527          31380   578            579            24822          5401           8.117649e-12 
       750   238.58885          31507   577            579            24932          5419           8.1534736e-12
       751   240.73738          31633   577            579            25034          5443           8.1899968e-12
       752   242.99316          31747   577            579            25123          5468           8.22707e-12  
       753   245.20887          31872   576            579            25222          5495           8.2649929e-12
       754   247.45838          31994   576            576            25318          5524           8.3039209e-12
       755   249.67063          32119   575            575            25408          5561           8.3436779e-12
       756   251.90992          32262   574            571            25522          5595           8.3845218e-12
       757   254.20184          32406   573            570            25643          5620           8.426375e-12 
       758   256.53253          32582   572            569            25796          5645           8.4691998e-12
       759   258.83147          32703   571            568            25897          5667           8.5129616e-12
       760   261.21761          32839   571            567            26013          5688           8.557752e-12 
       761   263.58463          32994   571            566            26143          5714           8.6035319e-12
       762   265.91661          33143   570            566            26269          5738           8.6503006e-12
       763   268.3487           33297   569            566            26387          5775           8.6982748e-12
       764   270.73451          33463   566            566            26534          5797           8.7473478e-12
       765   273.19066          33620   564            566            26668          5822           8.7975187e-12
       766   275.63541          33776   563            565            26800          5848           8.8478769e-12
       767   278.07239          33955   563            565            26949          5878           8.8978388e-12
       768   280.56857          34106   563            565            27072          5906           8.9495566e-12
       769   283.0853           34261   561            563            27203          5934           8.999784e-12 
       770   285.72508          34417   561            562            27329          5965           9.0506264e-12
       771   288.30954          34580   561            561            27470          5988           9.0968979e-12
       772   290.87559          34757   561            560            27619          6017           9.1519447e-12
       773   293.47529          34930   560            560            27770          6040           9.1994002e-12
       774   296.1184           35093   560            559            27906          6068           9.2514256e-12
       775   298.71941          35238   560            559            28026          6093           9.3001338e-12
       776   301.34045          35418   559            559            28178          6122           9.3495009e-12
       777   304.0157           35560   558            559            28301          6142           9.3992464e-12
       778   306.70297          35716   558            558            28438          6162           9.447884e-12 
       779   309.41349          35894   558            558            28595          6183           9.4959957e-12
       780   312.23519          36035   557            558            28716          6204           9.5387025e-12
       781   314.97395          36212   557            556            28861          6238           9.5919797e-12
       782   317.78831          36359   557            556            28982          6264           9.638968e-12 
       783   320.58033          36529   557            555            29134          6283           9.6872247e-12
       784   323.34747          36676   557            555            29246          6318           9.7309783e-12
       785   326.17505          36821   557            553            29366          6345           9.7765008e-12
       786   328.97459          36993   557            553            29514          6369           9.8291234e-12
       787   331.83003          37181   557            553            29669          6402           9.876445e-12 
       788   334.72738          37306   557            552            29763          6434           9.9264571e-12
       789   337.60474          37461   556            552            29897          6456           9.9730295e-12
       790   340.59934          37614   556            552            30027          6479           1.00195e-11  
       791   343.54364          37767   555            552            30155          6505           1.006652e-11 
       792   346.49009          37966   554            552            30334          6526           1.011361e-11 
       793   349.46152          38108   554            552            30452          6550           1.0160758e-11
       794   352.40501          38265   554            552            30590          6569           1.0209508e-11
       795   355.40116          38422   554            550            30721          6597           1.0265965e-11
       796   358.41138          38585   553            549            30865          6618           1.0309988e-11
       797   361.42004          38715   553            548            30975          6639           1.0348741e-11
       798   364.42963          38914   552            547            31151          6664           1.0410165e-11
       799   367.46822          39080   552            545            31300          6683           1.0455898e-11
       800   370.63071          39226   551            544            31421          6710           1.0510593e-11
       801   373.73119          39405   551            544            31570          6740           1.0556937e-11
       802   376.8362           39569   551            544            31714          6760           1.0606299e-11
       803   379.8984           39699   551            544            31819          6785           1.0644041e-11
       804   382.98538          39866   550            543            31961          6812           1.0696315e-11
       805   386.09541          40051   550            543            32119          6839           1.07366e-11  
       806   389.21733          40201   549            543            32242          6867           1.0783992e-11
       807   392.34631          40391   548            543            32409          6891           1.0830333e-11
       808   395.48168          40575   548            542            32563          6922           1.0887374e-11
       809   398.64614          40748   548            541            32713          6946           1.0936681e-11
       810   401.92179          40921   548            540            32862          6971           1.0987148e-11
       811   405.08054          41093   547            538            33003          7005           1.1043162e-11
       812   408.25162          41257   547            538            33141          7031           1.1089343e-11
       813   411.40016          41389   547            538            33242          7062           1.1131691e-11
       814   414.56352          41564   547            537            33391          7089           1.1187867e-11
       815   417.77396          41725   546            537            33522          7120           1.123434e-11 
       816   420.97231          41909   545            535            33672          7157           1.1290066e-11
       817   424.2141           42103   545            534            33845          7179           1.1339077e-11
       818   427.42145          42286   544            534            33994          7214           1.1389911e-11
       819   430.64069          42458   543            533            34139          7243           1.1440054e-11
       820   433.96935          42626   539            532            34282          7273           1.1489061e-11
       821   437.20946          42792   539            532            34421          7300           1.1533823e-11
       822   440.42057          42977   539            532            34575          7331           1.1586138e-11
       823   443.67907          43160   539            532            34735          7354           1.1642217e-11
       824   446.92886          43333   538            529            34879          7387           1.169614e-11 
       825   450.2058           43482   538            529            34997          7418           1.1743396e-11
       826   453.45142          43651   536            528            35144          7443           1.1800201e-11
       827   456.73932          43845   535            528            35302          7480           1.1848372e-11
       828   460.03168          44009   535            528            35441          7505           1.1897328e-11
       829   463.33556          44226   534            527            35634          7531           1.1959186e-11
       830   466.72224          44395   534            527            35777          7557           1.2003227e-11
       831   470.03302          44569   534            526            35919          7590           1.2055748e-11
       832   473.34174          44740   534            526            36064          7616           1.2101891e-11
       833   476.6635           44920   534            526            36220          7640           1.2162358e-11
       834   480.00157          45127   533            524            36387          7683           1.2223074e-11
       835   483.33901          45294   532            524            36530          7708           1.2267387e-11
       836   486.69328          45479   530            524            36682          7743           1.2315256e-11
       837   490.03245          45672   529            522            36845          7776           1.2369225e-11
       838   493.37515          45865   529            520            37001          7815           1.243169e-11 
       839   496.72579          46023   529            517            37123          7854           1.2482226e-11
       840   500.1648           46231   529            517            37294          7891           1.2544159e-11
       841   503.5045           46428   529            516            37454          7929           1.2594734e-11
       842   506.87996          46615   528            513            37611          7963           1.2643617e-11
       843   510.20946          46794   527            511            37758          7998           1.2692592e-11
       844   513.54436          46969   526            509            37898          8036           1.2749582e-11
       845   516.87704          47156   525            505            38045          8081           1.2803704e-11
       846   520.24481          47340   525            502            38193          8120           1.2860256e-11
       847   523.60763          47552   524            502            38365          8161           1.292419e-11 
       848   526.95121          47746   524            500            38527          8195           1.2972608e-11
       849   530.30517          47938   524            498            38687          8229           1.3025144e-11
       850   533.76549          48148   523            496            38869          8260           1.3080755e-11
       851   537.12276          48359   521            494            39046          8298           1.3147607e-11
       852   540.47523          48571   521            494            39218          8338           1.3209529e-11
       853   543.83747          48795   519            494            39410          8372           1.3267143e-11
       854   547.1912           48952   518            494            39518          8422           1.3314331e-11
       855   550.54284          49146   516            494            39671          8465           1.3374345e-11
       856   553.92897          49364   514            494            39850          8506           1.3432583e-11
       857   557.28268          49554   513            493            39998          8550           1.3488403e-11
       858   560.65778          49756   512            492            40164          8588           1.3552351e-11
       859   564.0289           49974   512            489            40350          8623           1.3602829e-11
       860   567.49763          50167   511            488            40503          8665           1.365966e-11 
       861   570.88798          50374   509            486            40669          8710           1.3708375e-11
       862   574.2597           50586   506            482            40847          8751           1.3776232e-11
       863   577.64363          50785   506            480            41008          8791           1.3822421e-11
       864   581.00866          51027   503            478            41209          8837           1.3883638e-11
       865   584.38068          51235   500            477            41379          8879           1.3940253e-11
       866   587.74151          51417   498            475            41524          8920           1.39897e-11  
       867   591.10569          51640   496            472            41713          8959           1.4047443e-11
       868   594.47009          51820   492            471            41854          9003           1.4105007e-11
       869   597.82742          51973   490            468            41946          9069           1.4149224e-11
       870   601.31774          52176   488            465            42106          9117           1.4204627e-11
       871   604.64653          52395   487            463            42282          9163           1.4274627e-11
       872   607.97131          52582   485            463            42425          9209           1.4329092e-11
       873   611.29365          52782   484            460            42585          9253           1.4375444e-11
       874   614.57729          53025   482            458            42782          9303           1.4439791e-11
       875   617.9324           53229   478            457            42937          9357           1.448871e-11 
       876   621.26935          53452   475            454            43114          9409           1.4554644e-11
       877   624.57772          53696   471            450            43314          9461           1.4614159e-11
       878   627.91344          53876   469            447            43453          9507           1.4670978e-11
       879   631.27913          54119   467            445            43652          9555           1.4743741e-11
       880   634.76524          54265   465            443            43745          9612           1.4801705e-11
       881   638.12994          54437   459            440            43869          9669           1.4848856e-11
       882   641.50286          54660   458            439            44049          9714           1.4905515e-11
       883   644.8853           54859   455            437            44206          9761           1.4960206e-11
       884   648.22486          55071   453            437            44371          9810           1.5009749e-11
       885   651.57838          55300   448            437            44547          9868           1.5074861e-11
       886   654.91196          55507   444            435            44706          9922           1.5126924e-11
       887   658.27389          55655   440            432            44813          9970           1.5162933e-11
       888   661.62901          55865   438            428            44972          10027          1.5237802e-11
       889   665.006            56063   436            427            45116          10084          1.5295404e-11
       890   668.51608          56219   434            426            45219          10140          1.5339993e-11
       891   671.88445          56424   430            424            45382          10188          1.5391382e-11
       892   675.22963          56638   429            422            45540          10247          1.543927e-11 
       893   678.62327          56828   425            419            45679          10305          1.5508935e-11
       894   681.93828          56983   422            415            45776          10370          1.5553575e-11
       895   685.27603          57186   422            412            45944          10408          1.5591374e-11
       896   688.60531          57406   420            408            46120          10458          1.5651989e-11
       897   691.96523          57608   418            408            46273          10509          1.5708328e-11
       898   695.32928          57842   415            398            46458          10571          1.5763704e-11
       899   698.70645          57973   406            397            46546          10624          1.5797507e-11
       900   702.19667          58173   404            395            46692          10682          1.5860778e-11
Loop time of 702.197 on 16 procs for 900 steps with 58173 atoms

97.9% CPU use with 16 MPI tasks x 1 OpenMP threads

MPI task timing breakdown:
Section |  min time  |  avg time  |  max time  |%varavg| %total
---------------------------------------------------------------
Pair    | 6.2985     | 100.1      | 277.92     | 988.2 | 14.26
Neigh   | 0.97761    | 17.763     | 47.769     | 403.0 |  2.53
Comm    | 85.084     | 118        | 153.7      | 211.8 | 16.80
Output  | 5.5698     | 5.5704     | 5.5756     |   0.1 |  0.79
Modify  | 198.96     | 426.16     | 560.69     | 614.8 | 60.69
Other   |            | 34.61      |            |       |  4.93

Nlocal:        3635.81 ave        7629 max         699 min
Histogram: 3 1 2 4 1 1 0 0 1 3
Nghost:        2807.31 ave        5471 max         671 min
Histogram: 3 0 2 2 4 1 0 0 2 2
Neighs:        17675.5 ave       34721 max        3755 min
Histogram: 3 0 0 8 0 1 0 0 0 4

Total # of neighbors = 282808
Ave neighs/atom = 4.8614993
Neighbor list builds = 5425
Dangerous builds = 224

Total wall time: 0:11:43
