LAMMPS (23 Jun 2022 - Update 4)
  using 1 OpenMP thread(s) per MPI task
package omp 0
using multi-threaded neighbor list subroutines
#-----------------------------------------------------------------------------#
#                NUFEB Simulation: Heterotrophic Biofilm Growth               #
#-----------------------------------------------------------------------------#


#-----------------------------System Settings---------------------------------#

units si                                    # using si units (m, s, kg)
atom_style      coccus                      # using nufeb coccus atom style
atom_modify     map array sort 10 0         # map array - find atoms using indices
		                            # sort every 10

boundary        pp pp ff                    # periodic boundaries in x and y
                                            # fixed boundary in z

newton          off                         # forces between local and ghost
                                            # atoms are computed in each
					     # processor without communication

processors      * * 1                       # processor grid

comm_modify     vel yes                     # communicate velocities for ghost atoms

read_data       atom_ch.in	             # read atom.in file which defines domain size
Reading data file ...
  orthogonal box = (0 0 0) to (6e-05 6e-05 6e-05)
  4 by 4 by 1 MPI processor grid
  reading atoms ...
  150 atoms
  read_data CPU = 0.039 seconds
                                            # and initial atoms


#--------------------Microbes and Functional Groups-------------------------#

group           CROSS1   type 1               # assign type 1,2 atoms to CROSS group
50 atoms in group CROSS1
group           CROSS2   type 2
50 atoms in group CROSS2
group		CHEATER  type 3
50 atoms in group CHEATER
group           dead     type 4
0 atoms in group dead

neighbor        5e-7 bin                   # setting neighbour skin distance and style

neigh_modify    check yes                  # rebuild neighbour list if any atom
                                           # had moved more than half the skin distance


#--------------------------Mesh Grid and Substrates--------------------------#

# defining grid sytle, substrate names, and grid size
grid_style      nufeb/chemostat 3 sub metab1 metab2 5e-6

# set diffusion boundary conditions and initial concentrations (liquid:kg/m3)
grid_modify     set sub      pp pp nd  3e-4
No /omp style for force computation currently active
grid_modify     set metab1   pp pp nd  1e-4
No /omp style for force computation currently active
grid_modify     set metab2   pp pp nd  1e-4
No /omp style for force computation currently active


#--------------------------Biological Processes-------------------------------#

# heterotrophs growth
fix growth_cross1 CROSS1 nufeb/growth/cross1 sub 3.5e-5 metab2 4e-3 metab1 growth 0.0028 yield 0.6 decay 2e-6 metab1_exp 20

fix growth_cross2 CROSS2 nufeb/growth/cross2 sub 3.5e-5 metab1 4e-3 metab2 growth 0.0028 yield 0.6 decay 2e-6 metab2_exp 20

fix growth_cheater CHEATER nufeb/growth/cheater sub 3.5e-5 metab1 9.5e-4 metab2 9.5e-4 growth 0.0028 yield 0.6 decay 2e-6
# heterotrophs division, division diameter: 1.36e-6
fix div1 CROSS1 nufeb/division/coccus 1.36e-6 1234
fix div2 CROSS2 nufeb/division/coccus 1.36e-6 1235
fix div3 CHEATER nufeb/division/coccus 1.36e-6 1236

fix death1 CROSS1 nufeb/death/diameter dead 5.43e-7
fix death2 CROSS2 nufeb/death/diameter dead 5.43e-7
fix death3 CHEATER nufeb/death/diameter dead 5.43e-7

#---------------------------Physical Processes--------------------------------#

pair_style  gran/hooke/history 1e-4 NULL 1e-5 NULL 0.0 0    # pairwise interaction
pair_coeff  * *                                             # between atoms

# pairwise interaction between z-wall and atoms
fix wall all wall/gran hooke/history 1e-3 NULL 1e-4 NULL 0 0 zplane 0.0 1e-04

fix vis all viscous 1e-5                                    # viscous damping force

fix grav all gravity 9.81 vector 0.0 0.0 -1.0

fix nve all nve/limit 1e-7                                  # NVE integration with
                                                            # maximum distance limit


#---------------------------Post-Physical Processes---------------------------#

fix coeff_sub all nufeb/diffusion_coeff sub ratio 0.8       # defining diffusion coeff in the biofilm
fix coeff_metab1 all nufeb/diffusion_coeff metab1 ratio 0.8    # region is 80% of the value in liquid
fix coeff_metab2 all nufeb/diffusion_coeff metab2 ratio 0.8

#---------------------------Chemical Processes---------------------------------#

fix diff_sub all nufeb/diffusion_reaction sub 1e-9        # diffusion reaction for updating
fix diff_metab1 all nufeb/diffusion_reaction metab1 4e-9     # distribusion of substrate concentration
fix diff_metab2 all nufeb/diffusion_reaction metab2 4e-9

#--------------------------Computations and Outputs----------------------------#

variable mass equal "mass(all)"                             # total mass
variable ncross1 equal "count(CROSS1)"                      # total # of CROSS1
variable ncross2 equal "count(CROSS2)"                      # total # of CROSS2
variable ncheater equal "count(CHEATER)"
variable ndead equal "count(dead)"

shell mkdir vtk_NEPS_ch                                            # dump vtk files to /vtk folder
dump du1 all vtk 10 vtk_NEPS_ch/dump*.vtu id type diameter         # require build NUFEB with vtk option
dump du2 all grid/vtk 10 vtk_NEPS_ch/dump_%_*.vti con rea den gro

#dump du3 all movie 10 movie.avi type diameter view 80 60    # dump video
#dump_modify du3 acolor 1 blue acolor 2 lightgrey framerate 10


                                                            # dump hdf5 files to /hdf5 folder
#shell mkdir hdf5                                           # require build NUFEB with hdf5 option
#dump du3 all nufeb/hdf5 10 dump.h5 id type x y z vx vy vz fx fy fz radius conc reac

thermo_style custom step cpu atoms v_ncross1 v_ncross2 v_ncheater v_ndead v_mass     # screen and log outputs
thermo 1
thermo_modify   lost ignore

#-----------------------------------Run----------------------------------------#

# issue run command, define timesteps for physical (pairdt) and chemical (diffdt) processes
run_style nufeb diffdt 1e-4 difftol 1e-6 pairdt 1e-2 pairtol 1 pairmax 1000 diffmax 5000

timestep 3000                                               # define biological timesteps (1000s)

run 900                                                    # growing biofilm for 900x1000s
Generated 0 of 6 mixed pair_coeff terms from geometric mixing rule
Last active /omp style is pair_style gran/hooke/history/omp
Neighbor list info ...
  update every 1 steps, delay 10 steps, check yes
  max neighbors/atom: 2000, page size: 100000
  master list distance cutoff = 2.49e-06
  ghost atom cutoff = 2.49e-06
  binsize = 1.245e-06, bins = 49 49 49
  1 neighbor lists, perpetual/occasional/extra = 1 0 0
  (1) pair gran/hooke/history/omp, perpetual
      attributes: half, newton off, size, history, omp
      pair build: half/size/bin/newtoff/omp
      stencil: full/bin/3d
      bin: standard
Per MPI rank memory allocation (min/avg/max) = 11.02 | 11.02 | 11.02 Mbytes
   Step          CPU          Atoms      v_ncross1      v_ncross2      v_ncheater      v_ndead         v_mass    
         0   0                    150   50             50             50             0              1.3295396e-13
         1   0.39307113           248   87             82             79             0              1.5926387e-13
         2   0.77808114           364   121            125            118            0              1.740584e-13 
         3   1.1632383            413   136            148            129            0              1.8573746e-13
         4   1.47826              436   143            159            134            0              1.9630726e-13
         5   1.7663568            454   148            167            139            0              2.0645466e-13
         6   2.0486249            468   155            170            143            0              2.1638594e-13
         7   2.2985584            488   162            180            146            0              2.2617473e-13
         8   2.5278142            518   172            195            151            0              2.3583591e-13
         9   2.7360919            545   181            209            155            0              2.453768e-13 
        10   2.937485             569   186            224            159            0              2.5480743e-13
        11   3.1118183            590   192            233            165            0              2.6410916e-13
        12   3.2708966            610   201            241            168            0              2.7331382e-13
        13   3.4245944            632   212            247            173            0              2.8239963e-13
        14   3.5578755            652   224            255            173            0              2.9136368e-13
        15   3.6899092            671   231            264            176            0              3.0022087e-13
        16   3.8188605            689   235            271            183            0              3.0896075e-13
        17   3.9511101            711   248            277            186            0              3.1759204e-13
        18   4.0906153            728   257            282            189            0              3.2612258e-13
        19   4.2093719            737   260            286            191            0              3.345208e-13 
        20   4.3423907            760   268            296            196            0              3.4281567e-13
        21   4.474497             775   272            304            199            0              3.5101168e-13
        22   4.5802333            790   279            310            201            0              3.59127e-13  
        23   4.6804937            808   284            321            203            0              3.6712081e-13
        24   4.7736884            826   290            329            207            0              3.7502312e-13
        25   4.8574739            845   297            340            208            0              3.8282798e-13
        26   4.9849571            864   303            347            214            0              3.9054533e-13
        27   5.1025899            883   309            358            216            0              3.9817147e-13
        28   5.1915249            905   321            367            217            0              4.0571231e-13
        29   5.2815099            925   326            377            222            0              4.1315521e-13
        30   5.3904512            940   331            383            226            0              4.2052219e-13
        31   5.471942             954   336            389            229            0              4.2781196e-13
        32   5.5526226            968   336            400            232            0              4.3501975e-13
        33   5.6377369            977   340            405            232            0              4.4212996e-13
        34   5.736741             989   348            408            233            0              4.4917503e-13
        35   5.8176957           1007   352            416            239            0              4.5613413e-13
        36   5.89087             1023   361            421            241            0              4.6302055e-13
        37   5.96696             1031   363            425            243            0              4.698277e-13 
        38   6.0405668           1042   366            432            244            0              4.7655673e-13
        39   6.1170813           1054   371            436            247            0              4.8321867e-13
        40   6.2161889           1069   377            443            249            0              4.8979802e-13
        41   6.2917602           1086   382            450            254            0              4.9631156e-13
        42   6.3514057           1107   389            461            257            0              5.0273506e-13
        43   6.4147372           1126   400            466            260            0              5.0909386e-13
        44   6.4932303           1144   406            473            265            0              5.1538878e-13
        45   6.5500716           1161   415            481            265            0              5.2161413e-13
        46   6.6079543           1175   422            485            268            0              5.2776689e-13
        47   6.6659489           1193   431            492            270            0              5.3385803e-13
        48   6.7372782           1207   437            496            274            0              5.3989373e-13
        49   6.800977            1219   444            498            277            0              5.458721e-13 
        50   6.9158209           1229   450            502            277            0              5.5178268e-13
        51   7.0170814           1244   456            509            279            0              5.5762886e-13
        52   7.0986006           1257   459            518            280            0              5.6343391e-13
        53   7.1933533           1270   463            521            286            0              5.6914827e-13
        54   7.2787339           1286   471            524            291            0              5.7480358e-13
        55   7.3420977           1301   476            532            293            0              5.8040336e-13
        56   7.408083            1312   481            536            295            0              5.8593969e-13
        57   7.5673129           1323   485            539            299            0              5.9141619e-13
        58   7.6727622           1334   489            542            303            0              5.9683788e-13
        59   7.7218866           1347   490            553            304            0              6.0219156e-13
        60   7.8064392           1358   496            557            305            0              6.0748721e-13
        61   7.87058             1372   503            560            309            0              6.1272343e-13
        62   7.9373645           1380   505            564            311            0              6.1791438e-13
        63   7.986984            1390   506            568            316            0              6.2305304e-13
        64   8.0490771           1401   512            572            317            0              6.2815416e-13
        65   8.0991302           1408   514            576            318            0              6.3320779e-13
        66   8.1494327           1422   518            581            323            0              6.3821672e-13
        67   8.2233431           1432   521            587            324            0              6.4317464e-13
        68   8.280853            1439   523            592            324            0              6.4808364e-13
        69   8.3386494           1453   528            597            328            0              6.5293712e-13
        70   8.4353294           1466   532            603            331            0              6.5774826e-13
        71   8.4883779           1479   537            606            336            0              6.6250841e-13
        72   8.5348137           1494   542            613            339            0              6.6722781e-13
        73   8.5846781           1504   545            617            342            0              6.7190852e-13
        74   8.6495645           1514   547            620            347            0              6.7654594e-13
        75   8.7156024           1532   554            628            350            0              6.8113838e-13
        76   8.7667013           1542   559            632            351            0              6.8567953e-13
        77   8.8192763           1548   562            634            352            0              6.901712e-13 
        78   8.8739383           1559   568            636            355            0              6.9461113e-13
        79   8.9150251           1568   573            637            358            0              6.9900678e-13
        80   9.009693            1576   574            642            360            0              7.0336362e-13
        81   9.064409            1586   579            645            362            0              7.0768114e-13
        82   9.1099798           1600   583            647            370            0              7.1193964e-13
        83   9.1561789           1609   587            652            370            0              7.1616207e-13
        84   9.2051507           1617   587            657            373            0              7.2034548e-13
        85   9.2776646           1625   588            663            374            0              7.2448004e-13
        86   9.3283604           1636   594            667            375            0              7.2856831e-13
        87   9.3698114           1648   598            674            376            0              7.3261877e-13
        88   9.410602            1655   599            675            381            0              7.3663349e-13
        89   9.4767261           1668   604            679            385            0              7.4059721e-13
        90   9.5478044           1672   604            681            387            0              7.4453122e-13
        91   9.6112652           1679   606            683            390            0              7.4842085e-13
        92   9.666976            1687   609            686            392            0              7.5225203e-13
        93   9.7191408           1696   613            690            393            0              7.5603618e-13
        94   9.7667999           1706   616            695            395            0              7.597704e-13 
        95   9.8118845           1716   619            698            399            0              7.6346668e-13
        96   9.856945            1728   624            701            403            0              7.6714289e-13
        97   9.9115853           1734   626            702            406            0              7.7077854e-13
        98   9.9713889           1743   629            706            408            0              7.7439114e-13
        99   10.010283           1757   635            709            413            0              7.779583e-13 
       100   10.079766           1765   638            710            417            0              7.8150104e-13
       101   10.118052           1775   643            711            421            0              7.8502086e-13
       102   10.177255           1785   646            716            423            0              7.8849462e-13
       103   10.233597           1793   650            718            425            0              7.9190189e-13
       104   10.307221           1802   651            723            428            0              7.9528835e-13
       105   10.351478           1808   653            726            429            0              7.9859771e-13
       106   10.394679           1819   657            731            431            0              8.0186364e-13
       107   10.452811           1830   661            733            436            0              8.0508741e-13
       108   10.492881           1838   664            737            437            0              8.082716e-13 
       109   10.535968           1846   666            737            443            0              8.1141959e-13
       110   10.603909           1853   668            739            446            0              8.1453058e-13
       111   10.640683           1867   673            742            452            0              8.1761197e-13
       112   10.677001           1873   675            743            455            0              8.2066305e-13
       113   10.717129           1878   676            745            457            0              8.2368416e-13
       114   10.758353           1883   680            746            457            0              8.2666797e-13
       115   10.798118           1889   682            746            461            0              8.2960769e-13
       116   10.839786           1894   684            748            462            0              8.3251699e-13
       117   10.880553           1899   686            751            462            0              8.3537891e-13
       118   10.921024           1908   689            754            465            0              8.381787e-13 
       119   10.95988            1923   697            754            472            0              8.4094219e-13
       120   11.021902           1929   700            755            474            0              8.4367074e-13
       121   11.066165           1935   702            758            475            0              8.4636861e-13
       122   11.102351           1944   705            760            479            0              8.4903636e-13
       123   11.148747           1947   705            761            481            0              8.5165529e-13
       124   11.184834           1952   708            761            483            0              8.5424609e-13
       125   11.223928           1960   711            764            485            0              8.5682387e-13
       126   11.261006           1963   712            765            486            0              8.593891e-13 
       127   11.298574           1971   714            769            488            0              8.6193155e-13
       128   11.334211           1981   719            772            490            0              8.6444396e-13
       129   11.370058           1986   719            775            492            0              8.6693115e-13
       130   11.431652           1991   720            778            493            0              8.6939238e-13
       131   11.47097            1997   721            780            496            0              8.7182745e-13
       132   11.503184           2008   723            783            502            0              8.7423821e-13
       133   11.539274           2012   724            783            505            0              8.7661744e-13
       134   11.57184            2018   726            785            507            0              8.7897104e-13
       135   11.609613           2023   730            786            507            0              8.8129672e-13
       136   11.642669           2028   732            788            508            0              8.8359653e-13
       137   11.681632           2033   735            789            509            0              8.8587459e-13
       138   11.715921           2043   740            791            512            0              8.8814212e-13
       139   11.751173           2049   742            794            513            0              8.9038153e-13
       140   11.812067           2052   744            794            514            0              8.926e-13    
       141   11.845907           2060   748            795            517            0              8.9479125e-13
       142   11.877339           2065   751            795            519            0              8.9695144e-13
       143   11.92093            2071   752            796            523            0              8.9909881e-13
       144   11.960608           2077   753            798            526            0              9.0124525e-13
       145   11.997013           2082   755            799            528            0              9.0336953e-13
       146   12.038185           2090   759            801            530            0              9.0547758e-13
       147   12.070638           2100   763            804            533            0              9.0759614e-13
       148   12.107568           2106   763            809            534            0              9.0966335e-13
       149   12.144316           2110   765            809            536            0              9.1171189e-13
       150   12.207491           2117   768            810            539            0              9.1375812e-13
       151   12.239313           2124   770            811            543            0              9.1576005e-13
       152   12.272822           2127   771            812            544            0              9.1775531e-13
       153   12.308925           2132   773            813            546            0              9.1973896e-13
       154   12.336246           2140   775            814            551            0              9.2170684e-13
       155   12.370549           2144   778            815            551            0              9.2365266e-13
       156   12.409027           2147   780            815            552            0              9.2559611e-13
       157   12.447585           2154   782            817            555            0              9.2752808e-13
       158   12.485259           2164   788            818            558            0              9.2945109e-13
       159   12.52387            2173   792            821            560            0              9.3137656e-13
       160   12.59282            2180   794            823            563            0              9.332973e-13 
       161   12.633417           2184   795            825            564            0              9.3520458e-13
       162   12.673248           2190   798            826            566            0              9.3710288e-13
       163   12.702996           2195   800            826            569            0              9.3901033e-13
       164   12.739942           2205   802            826            577            0              9.4089404e-13
       165   12.779418           2209   803            826            580            0              9.4275492e-13
       166   12.834698           2213   804            829            580            0              9.4460497e-13
       167   12.878984           2220   805            833            582            0              9.464678e-13 
       168   12.92154            2227   807            834            586            0              9.4832605e-13
       169   12.966205           2230   807            834            589            0              9.5018856e-13
       170   13.038313           2234   809            835            590            0              9.5203341e-13
       171   13.085792           2239   811            837            591            0              9.5387179e-13
       172   13.136248           2244   813            838            593            0              9.5571205e-13
       173   13.184511           2247   813            838            596            0              9.5755274e-13
       174   13.232656           2250   813            838            599            0              9.5939399e-13
       175   13.273883           2254   813            839            602            0              9.6123618e-13
       176   13.322881           2263   815            840            608            0              9.6306982e-13
       177   13.370537           2267   817            841            609            0              9.648996e-13 
       178   13.41995            2275   819            844            612            0              9.6673552e-13
       179   13.46887            2281   820            844            617            0              9.6857681e-13
       180   13.562851           2290   822            848            620            0              9.7041388e-13
       181   13.614515           2293   822            849            622            0              9.722559e-13 
       182   13.667125           2298   824            850            624            0              9.7409717e-13
       183   13.710801           2307   828            851            628            0              9.7594159e-13
       184   13.764575           2311   828            852            631            0              9.7778962e-13
       185   13.817709           2315   829            852            634            0              9.7965162e-13
       186   13.872148           2323   830            855            638            0              9.8151875e-13
       187   13.922256           2330   832            856            642            0              9.8339688e-13
       188   13.978724           2339   833            857            649            0              9.8526803e-13
       189   14.031378           2344   834            857            653            0              9.8715069e-13
       190   14.108264           2350   837            858            655            0              9.8903958e-13
       191   14.149679           2360   840            861            659            0              9.9095531e-13
       192   14.204632           2368   841            862            665            0              9.9286046e-13
       193   14.265169           2376   841            863            672            0              9.9478306e-13
       194   14.325017           2379   841            864            674            0              9.967192e-13 
       195   14.383017           2385   843            865            677            0              9.9867086e-13
       196   14.442099           2390   843            867            680            0              1.0006382e-12
       197   14.503507           2397   845            868            684            0              1.0026209e-12
       198   14.558119           2402   845            869            688            0              1.0046219e-12
       199   14.608335           2408   847            870            691            0              1.0066239e-12
       200   14.703277           2410   847            871            692            0              1.0086337e-12
       201   14.77648            2416   848            871            697            0              1.0106677e-12
       202   14.830814           2426   853            871            702            0              1.0127189e-12
       203   14.886674           2434   854            872            708            0              1.0147812e-12
       204   14.944269           2440   855            872            713            0              1.0168535e-12
       205   15.006703           2445   856            873            716            0              1.018936e-12 
       206   15.065095           2452   860            873            719            0              1.0210421e-12
       207   15.112022           2462   861            874            727            0              1.0231523e-12
       208   15.160227           2465   861            874            730            0              1.025271e-12 
       209   15.223546           2468   862            874            732            0              1.0274061e-12
       210   15.306795           2476   863            874            739            0              1.0295573e-12
       211   15.369063           2481   863            874            744            0              1.0317138e-12
       212   15.423649           2487   866            874            747            0              1.0338855e-12
       213   15.485202           2497   867            874            756            0              1.036072e-12 
       214   15.550487           2498   867            874            757            0              1.038271e-12 
       215   15.610052           2505   867            874            764            0              1.0404978e-12
       216   15.670463           2509   867            874            768            0              1.042742e-12 
       217   15.725721           2515   867            874            774            0              1.0450052e-12
       218   15.783984           2526   869            875            782            0              1.0472617e-12
       219   15.839389           2537   870            876            791            0              1.0495264e-12
       220   15.917183           2550   871            877            802            0              1.0518003e-12
       221   15.973853           2555   871            878            806            0              1.054076e-12 
       222   16.030775           2563   874            879            810            0              1.0563612e-12
       223   16.087639           2569   878            880            811            0              1.0586564e-12
       224   16.139773           2578   878            882            818            0              1.0609665e-12
       225   16.189636           2591   879            884            828            0              1.0632809e-12
       226   16.2388             2602   879            885            838            0              1.0655991e-12
       227   16.293637           2605   880            886            839            0              1.0679063e-12
       228   16.345126           2614   880            886            848            0              1.0702185e-12
       229   16.408264           2620   880            887            853            0              1.0725324e-12
       230   16.499152           2627   880            887            860            0              1.0748659e-12
       231   16.559941           2636   881            887            868            0              1.0772126e-12
       232   16.615775           2642   882            887            873            0              1.0795739e-12
       233   16.679897           2652   886            888            878            0              1.0819317e-12
       234   16.735689           2665   886            889            890            0              1.0843211e-12
       235   16.798216           2670   886            890            894            0              1.0867137e-12
       236   16.862911           2678   888            891            899            0              1.0891207e-12
       237   16.923859           2688   888            891            909            0              1.0915397e-12
       238   16.98411            2696   891            891            914            0              1.0939773e-12
       239   17.055722           2703   891            892            920            0              1.0964205e-12
       240   17.145956           2709   892            892            925            0              1.098899e-12 
       241   17.20348            2718   893            894            931            0              1.1013844e-12
       242   17.265498           2722   893            894            935            0              1.1038759e-12
       243   17.323957           2729   893            894            942            0              1.1063818e-12
       244   17.385327           2740   893            894            953            0              1.108885e-12 
       245   17.448354           2750   894            896            960            0              1.1114067e-12
       246   17.509471           2762   894            896            972            0              1.1139384e-12
       247   17.57893            2769   895            896            978            0              1.1164809e-12
       248   17.750106           2774   895            896            983            0              1.1190473e-12
       249   17.834255           2781   896            897            988            0              1.1216376e-12
       250   17.91304            2791   898            898            995            0              1.1242602e-12
       251   17.974177           2797   898            898            1001           0              1.1268807e-12
       252   18.039831           2800   898            900            1002           0              1.1295092e-12
       253   18.105229           2808   899            900            1009           0              1.1321478e-12
       254   18.163802           2818   899            900            1019           0              1.1347908e-12
       255   18.244408           2829   901            901            1027           0              1.1374335e-12
       256   18.32958            2843   902            901            1040           0              1.1400893e-12
       257   18.413686           2854   903            902            1049           0              1.1427746e-12
       258   18.496494           2866   904            903            1059           0              1.1454819e-12
       259   18.578095           2876   904            903            1069           0              1.1482009e-12
       260   18.738967           2879   904            903            1072           0              1.1509358e-12
       261   18.818909           2888   906            903            1079           0              1.1536777e-12
       262   18.894712           2902   908            903            1091           0              1.1564358e-12
       263   18.96566            2910   908            903            1099           0              1.1592208e-12
       264   19.032187           2919   908            903            1108           0              1.1620274e-12
       265   19.109402           2927   909            903            1115           0              1.1648393e-12
       266   19.184142           2936   909            904            1123           0              1.1676702e-12
       267   19.265574           2951   909            904            1138           0              1.1705143e-12
       268   19.342682           2961   909            904            1148           0              1.1733993e-12
       269   19.437236           2969   909            904            1156           0              1.1763109e-12
       270   19.537643           2977   910            904            1163           0              1.1792524e-12
       271   19.590102           2984   910            904            1170           0              1.1821991e-12
       272   19.652324           2988   910            904            1174           0              1.1851475e-12
       273   19.740491           3000   910            904            1186           0              1.1880841e-12
       274   19.815822           3008   911            906            1191           0              1.1910491e-12
       275   19.893164           3012   911            907            1194           0              1.1940492e-12
       276   19.986062           3020   911            907            1202           0              1.1970728e-12
       277   20.073118           3029   911            907            1211           0              1.2001217e-12
       278   20.165178           3040   913            908            1219           0              1.2031862e-12
       279   20.25979            3060   914            908            1238           0              1.2062812e-12
       280   20.384639           3073   914            908            1251           0              1.2094078e-12
       281   20.47086            3085   915            908            1262           0              1.2125683e-12
       282   20.556631           3091   915            908            1268           0              1.2157401e-12
       283   20.645224           3105   915            909            1281           0              1.2189477e-12
       284   20.732912           3111   916            909            1286           0              1.2221719e-12
       285   20.831517           3114   916            910            1288           0              1.2254164e-12
       286   20.911736           3123   916            910            1297           0              1.2286938e-12
       287   21.000596           3130   917            910            1303           0              1.2319769e-12
       288   21.092058           3140   917            910            1313           0              1.2352855e-12
       289   21.174843           3152   919            910            1323           0              1.2386326e-12
       290   21.27476            3165   919            910            1336           0              1.2419809e-12
       291   21.337379           3186   921            911            1354           0              1.245335e-12 
       292   21.424403           3199   922            911            1366           0              1.24866e-12  
       293   21.520576           3212   923            911            1378           0              1.2520016e-12
       294   21.604834           3223   923            911            1389           0              1.255381e-12 
       295   21.692956           3235   923            911            1401           0              1.2587812e-12
       296   21.777211           3249   924            911            1414           0              1.2621846e-12
       297   21.858522           3264   924            911            1429           0              1.2655952e-12
       298   21.947491           3272   924            911            1437           0              1.2690402e-12
       299   22.029799           3281   924            911            1446           0              1.2724868e-12
       300   22.151156           3293   925            912            1456           0              1.2759348e-12
       301   22.233945           3306   926            912            1468           0              1.2793904e-12
       302   22.307028           3318   926            912            1480           0              1.2828404e-12
       303   22.398112           3331   926            912            1493           0              1.2862931e-12
       304   22.484891           3343   926            912            1505           0              1.2897707e-12
       305   22.575956           3348   926            912            1510           0              1.2932901e-12
       306   22.655003           3355   926            912            1517           0              1.2968151e-12
       307   22.748759           3367   927            913            1527           0              1.3003382e-12
       308   22.833898           3375   927            913            1535           0              1.3038915e-12
       309   22.901967           3382   927            913            1542           0              1.3074391e-12
       310   23.024057           3397   930            913            1554           0              1.3109736e-12
       311   23.108216           3412   931            913            1567           1              1.3145587e-12
       312   23.199908           3429   931            914            1583           1              1.3181656e-12
       313   23.271863           3438   931            914            1592           1              1.3217806e-12
       314   23.3621             3451   932            914            1603           2              1.3253983e-12
       315   23.44334            3459   932            914            1611           2              1.3290341e-12
       316   23.525567           3472   932            914            1624           2              1.3326667e-12
       317   23.595587           3480   932            914            1632           2              1.3363029e-12
       318   23.687453           3493   932            914            1645           2              1.3399383e-12
       319   23.775714           3504   932            914            1654           4              1.3436081e-12
       320   23.903205           3516   932            915            1663           6              1.3472968e-12
       321   24.003571           3530   932            915            1676           7              1.3510076e-12
       322   24.096058           3551   932            916            1696           7              1.3547371e-12
       323   24.203355           3559   932            917            1703           7              1.3584956e-12
       324   24.29784            3567   932            917            1711           7              1.3622937e-12
       325   24.399444           3581   932            917            1725           7              1.3661179e-12
       326   24.509377           3597   933            917            1739           8              1.3699755e-12
       327   24.611935           3607   933            918            1747           9              1.3738618e-12
       328   24.711251           3613   933            918            1752           10             1.3777638e-12
       329   24.805997           3619   933            918            1758           10             1.3816825e-12
       330   24.93918            3628   933            918            1767           10             1.3856222e-12
       331   25.024931           3643   933            918            1782           10             1.3896142e-12
       332   25.158793           3654   934            918            1792           10             1.3936017e-12
       333   25.274291           3662   934            918            1799           11             1.39767e-12  
       334   25.368211           3679   934            918            1814           13             1.4017659e-12
       335   25.470659           3693   934            918            1827           14             1.4058622e-12
       336   25.579624           3703   934            918            1837           14             1.4099932e-12
       337   25.688344           3713   934            918            1844           17             1.4141694e-12
       338   25.784779           3727   934            918            1857           18             1.4183875e-12
       339   25.898412           3740   934            918            1869           19             1.4225908e-12
       340   26.055142           3756   934            918            1885           19             1.4268398e-12
       341   26.173531           3771   935            918            1899           19             1.4311555e-12
       342   26.28859            3784   935            918            1911           20             1.4354803e-12
       343   26.39743            3797   935            918            1922           22             1.4398268e-12
       344   26.511724           3809   935            918            1933           23             1.4441945e-12
       345   26.642281           3827   936            918            1950           23             1.4486041e-12
       346   26.756059           3842   936            918            1964           24             1.453075e-12 
       347   26.911431           3858   936            918            1979           25             1.4575862e-12
       348   27.019001           3877   937            918            1995           27             1.4621975e-12
       349   27.146583           3895   937            918            2012           28             1.4668065e-12
       350   27.296594           3904   938            918            2016           32             1.4714811e-12
       351   27.409829           3921   938            918            2033           32             1.4761723e-12
       352   27.532176           3938   938            918            2049           33             1.4808809e-12
       353   27.657798           3954   938            918            2064           34             1.4856477e-12
       354   27.781519           3969   939            918            2077           35             1.4904671e-12
       355   27.898899           3984   939            918            2091           36             1.4953e-12   
       356   28.024565           4001   939            918            2102           42             1.50017e-12  
       357   28.158553           4021   939            918            2120           44             1.5050961e-12
       358   28.27639            4043   939            919            2140           45             1.5100756e-12
       359   28.37947            4057   939            920            2153           45             1.5150754e-12
       360   28.537908           4077   939            920            2172           46             1.5200788e-12
       361   28.662128           4096   939            920            2190           47             1.5251081e-12
       362   28.78517            4112   939            920            2205           48             1.5301839e-12
       363   28.897847           4124   940            920            2214           50             1.5353012e-12
       364   29.022255           4139   940            920            2228           51             1.5404447e-12
       365   29.144034           4158   940            920            2247           51             1.5455914e-12
       366   29.27932            4175   940            920            2261           54             1.5507535e-12
       367   29.427553           4198   940            920            2284           54             1.5559633e-12
       368   29.563489           4219   940            920            2304           55             1.5612014e-12
       369   29.676993           4231   940            920            2314           57             1.5664898e-12
       370   29.837848           4251   940            920            2333           58             1.5718016e-12
       371   29.942697           4264   940            920            2345           59             1.5771269e-12
       372   30.054127           4280   940            920            2360           60             1.5824668e-12
       373   30.1645             4295   940            920            2375           60             1.5878268e-12
       374   30.287962           4313   940            920            2391           62             1.593204e-12 
       375   30.427628           4332   940            920            2406           66             1.5985779e-12
       376   30.535845           4350   940            920            2422           68             1.6039736e-12
       377   30.651118           4363   941            920            2433           69             1.6093976e-12
       378   30.769622           4380   941            920            2449           70             1.6148329e-12
       379   30.890806           4403   941            920            2470           72             1.6202859e-12
       380   31.034559           4417   941            920            2482           74             1.6257576e-12
       381   31.154272           4435   941            920            2496           78             1.631246e-12 
       382   31.262661           4459   942            921            2517           79             1.6367549e-12
       383   31.403346           4473   942            921            2531           79             1.6422711e-12
       384   31.535341           4486   942            921            2541           82             1.6477926e-12
       385   31.652757           4507   942            921            2561           83             1.6533315e-12
       386   31.772429           4522   942            921            2573           86             1.6588884e-12
       387   31.912242           4541   942            921            2591           87             1.664458e-12 
       388   32.034416           4559   942            921            2608           88             1.6700522e-12
       389   32.147696           4571   942            921            2617           91             1.6756176e-12
       390   32.293417           4595   942            921            2641           91             1.6811994e-12
       391   32.427133           4620   942            921            2665           92             1.6868011e-12
       392   32.550619           4641   942            921            2684           94             1.692402e-12 
       393   32.657641           4661   942            921            2700           98             1.6979906e-12
       394   32.943292           4683   942            921            2717           103            1.7035894e-12
       395   33.055545           4700   942            921            2733           104            1.7091961e-12
       396   33.168922           4718   942            921            2749           106            1.7147993e-12
       397   33.287647           4737   942            921            2767           107            1.7204085e-12
       398   33.42633            4752   942            921            2777           112            1.7260094e-12
       399   33.570343           4773   942            921            2793           117            1.7316255e-12
       400   33.725208           4786   942            921            2803           120            1.7372765e-12
       401   33.85238            4805   942            921            2821           121            1.7429241e-12
       402   33.96942            4823   942            922            2836           123            1.7485761e-12
       403   34.075305           4843   942            922            2856           123            1.754216e-12 
       404   34.189356           4863   943            922            2874           124            1.7598586e-12
       405   34.307534           4875   943            922            2882           128            1.7655141e-12
       406   34.429243           4899   943            923            2903           130            1.7711862e-12
       407   34.547493           4923   943            923            2925           132            1.7768373e-12
       408   34.661531           4939   943            923            2939           134            1.7825255e-12
       409   34.794505           4957   943            923            2954           137            1.7882046e-12
       410   35.002182           4970   943            923            2966           138            1.7939216e-12
       411   35.119875           4990   944            923            2985           138            1.7996591e-12
       412   35.267599           5008   944            923            3001           140            1.8053877e-12
       413   35.387737           5032   944            923            3023           142            1.8111359e-12
       414   35.522908           5049   944            923            3037           145            1.8169047e-12
       415   35.665738           5070   944            923            3054           149            1.8227081e-12
       416   35.811117           5087   944            923            3071           149            1.8285152e-12
       417   35.92522            5107   944            923            3087           153            1.8343429e-12
       418   36.045095           5121   944            923            3100           154            1.8401826e-12
       419   36.180888           5141   944            923            3114           160            1.8460064e-12
       420   36.348989           5164   944            924            3135           161            1.8518918e-12
       421   36.469095           5183   944            924            3153           162            1.8577744e-12
       422   36.603153           5201   944            924            3169           164            1.8636595e-12
       423   36.753915           5225   944            924            3186           171            1.8695642e-12
       424   36.892101           5242   944            924            3202           172            1.87548e-12  
       425   37.023838           5258   944            924            3216           174            1.8814003e-12
       426   37.181261           5284   944            924            3240           176            1.8873632e-12
       427   37.310913           5301   944            924            3253           180            1.8933339e-12
       428   37.452089           5320   944            924            3269           183            1.8993115e-12
       429   37.622009           5348   944            924            3293           187            1.9053463e-12
       430   37.795233           5374   944            924            3316           190            1.9114168e-12
       431   37.925178           5392   944            924            3328           196            1.9174944e-12
       432   38.063486           5412   944            924            3346           198            1.923618e-12 
       433   38.205902           5440   944            924            3367           205            1.929721e-12 
       434   38.358112           5464   944            924            3388           208            1.9358207e-12
       435   38.50303            5484   944            924            3406           210            1.9419528e-12
       436   38.628614           5508   944            924            3430           210            1.948101e-12 
       437   38.773836           5529   944            924            3449           212            1.9542456e-12
       438   38.907187           5553   944            924            3472           213            1.9603994e-12
       439   39.049607           5576   944            924            3491           217            1.966543e-12 
       440   39.205157           5601   944            924            3513           220            1.9726939e-12
       441   39.365645           5622   944            924            3533           221            1.9788683e-12
       442   39.510245           5650   944            925            3557           224            1.9851001e-12
       443   39.675193           5680   944            925            3583           228            1.9913646e-12
       444   39.820905           5701   944            925            3603           229            1.9976268e-12
       445   39.966267           5720   945            925            3616           234            2.0039292e-12
       446   40.107829           5735   945            925            3631           234            2.0102218e-12
       447   40.261076           5759   945            925            3651           238            2.0165667e-12
       448   40.407434           5782   945            925            3674           238            2.0229067e-12
       449   40.558099           5799   945            925            3690           239            2.0292471e-12
       450   40.77341            5824   945            924            3712           243            2.0356195e-12
       451   40.934705           5840   945            924            3727           244            2.0420414e-12
       452   41.093982           5858   945            924            3741           248            2.048472e-12 
       453   41.252738           5883   945            924            3764           250            2.0549198e-12
       454   41.397269           5898   945            924            3779           250            2.0613762e-12
       455   41.548515           5918   945            924            3797           252            2.0678563e-12
       456   41.702924           5941   945            924            3819           253            2.0743415e-12
       457   41.851827           5966   945            924            3841           256            2.0808301e-12
       458   42.008918           5991   945            924            3865           257            2.0873054e-12
       459   42.164788           6014   945            924            3885           260            2.0937817e-12
       460   42.356983           6044   945            924            3913           262            2.1002866e-12
       461   42.532151           6073   945            924            3939           265            2.1068408e-12
       462   42.696532           6096   945            924            3957           270            2.1133843e-12
       463   42.857219           6117   945            924            3977           271            2.1199224e-12
       464   43.022305           6146   945            924            4004           273            2.1264857e-12
       465   43.191278           6174   945            924            4027           278            2.1331e-12   
       466   43.343554           6194   945            923            4045           281            2.1397147e-12
       467   43.512709           6214   945            923            4064           282            2.1463161e-12
       468   43.668285           6253   945            923            4102           283            2.15293e-12  
       469   43.816183           6277   945            923            4124           285            2.1595329e-12
       470   44.010743           6296   945            922            4139           290            2.1661428e-12
       471   44.181166           6330   945            922            4172           291            2.1727581e-12
       472   44.357581           6349   945            922            4191           291            2.1794166e-12
       473   44.516629           6364   945            921            4204           294            2.1860673e-12
       474   44.679981           6381   945            921            4219           296            2.1926937e-12
       475   44.838387           6401   945            921            4238           297            2.1993444e-12
       476   44.987184           6423   945            921            4257           300            2.2059858e-12
       477   45.159426           6444   945            921            4275           303            2.2126491e-12
       478   45.31023            6461   945            921            4289           306            2.2193162e-12
       479   45.468696           6487   945            921            4313           308            2.2260029e-12
       480   45.666873           6510   945            921            4333           311            2.2326984e-12
       481   45.826001           6530   945            921            4352           312            2.2393961e-12
       482   46.002208           6563   945            921            4382           315            2.2461186e-12
       483   46.173363           6584   945            921            4399           319            2.2528466e-12
       484   46.32588            6610   945            921            4425           319            2.2595794e-12
       485   46.489219           6632   945            921            4447           319            2.266302e-12 
       486   46.640036           6658   945            921            4472           320            2.2730245e-12
       487   46.81176            6690   946            921            4502           321            2.2797519e-12
       488   46.9685             6710   946            921            4519           324            2.2864959e-12
       489   47.134164           6729   946            920            4536           327            2.2932207e-12
       490   47.337344           6751   947            920            4555           329            2.2999542e-12
       491   47.522639           6783   947            920            4586           330            2.3067255e-12
       492   47.67415            6800   947            920            4601           332            2.3135018e-12
       493   47.849401           6824   947            920            4618           339            2.3202479e-12
       494   48.059414           6845   947            919            4639           340            2.3270197e-12
       495   48.232241           6865   947            919            4654           345            2.3337799e-12
       496   48.385416           6889   946            919            4677           347            2.3405518e-12
       497   48.562373           6912   946            919            4697           350            2.347333e-12 
       498   48.7214             6938   946            919            4721           352            2.3541066e-12
       499   48.859778           6967   945            919            4746           357            2.3608719e-12
       500   49.044421           6985   945            919            4763           358            2.3676142e-12
       501   49.20552            7000   945            919            4775           361            2.3743521e-12
       502   49.362196           7022   944            919            4794           365            2.3810899e-12
       503   49.511266           7040   944            919            4811           366            2.3878218e-12
       504   49.68865            7079   944            919            4847           369            2.3945268e-12
       505   49.841287           7100   944            919            4867           370            2.4012599e-12
       506   50.030353           7125   944            919            4889           373            2.4080178e-12
       507   50.224719           7152   944            919            4915           374            2.4147995e-12
       508   50.392272           7178   944            920            4939           375            2.4216018e-12
       509   50.579497           7204   944            920            4961           379            2.4283878e-12
       510   50.806887           7229   944            920            4982           383            2.4351918e-12
       511   50.983788           7255   943            920            5005           387            2.4420276e-12
       512   51.176612           7284   943            920            5028           393            2.4488642e-12
       513   51.347676           7313   943            920            5054           396            2.4557362e-12
       514   51.52398            7340   943            920            5075           402            2.4625936e-12
       515   51.690846           7356   943            920            5087           406            2.4694714e-12
       516   51.872989           7390   943            920            5119           408            2.4763259e-12
       517   52.035951           7419   942            920            5143           414            2.4832004e-12
       518   52.210457           7446   942            920            5168           416            2.4900816e-12
       519   52.402658           7468   942            920            5188           418            2.4970128e-12
       520   52.663251           7493   942            918            5212           421            2.5039437e-12
       521   52.865477           7530   942            918            5246           424            2.5109166e-12
       522   53.049689           7553   942            918            5267           426            2.5178939e-12
       523   53.22693            7569   942            918            5280           429            2.5248621e-12
       524   53.410481           7599   941            917            5310           431            2.5318216e-12
       525   53.597305           7623   941            917            5331           434            2.538765e-12 
       526   53.780768           7659   941            917            5364           437            2.5457048e-12
       527   53.96117            7677   941            917            5378           441            2.552637e-12 
       528   54.158675           7705   941            916            5404           444            2.5595611e-12
       529   54.335076           7727   941            916            5421           449            2.5664977e-12
       530   54.565163           7755   941            916            5447           451            2.5734364e-12
       531   54.748686           7785   941            916            5469           459            2.5804126e-12
       532   54.906494           7808   941            916            5491           460            2.5873761e-12
       533   55.108711           7833   941            916            5514           462            2.5943189e-12
       534   55.289053           7856   941            916            5535           464            2.6012912e-12
       535   55.489569           7876   941            915            5555           465            2.6082888e-12
       536   55.69237            7903   940            915            5577           471            2.6152809e-12
       537   55.875011           7930   940            915            5602           473            2.6222845e-12
       538   56.090147           7959   940            915            5628           476            2.6292824e-12
       539   56.288707           7990   939            915            5654           482            2.636311e-12 
       540   56.508972           8020   939            915            5680           486            2.6433469e-12
       541   56.707011           8055   938            915            5710           492            2.6503766e-12
       542   56.886159           8080   938            914            5730           498            2.6574179e-12
       543   57.088176           8110   938            915            5756           501            2.6644377e-12
       544   57.272708           8144   938            915            5787           504            2.6714651e-12
       545   57.474339           8169   938            915            5809           507            2.678506e-12 
       546   57.660015           8202   938            915            5842           507            2.6855607e-12
       547   57.850037           8216   938            915            5853           510            2.6925923e-12
       548   58.047787           8251   938            915            5885           513            2.6996348e-12
       549   58.220749           8263   938            915            5894           516            2.7066893e-12
       550   58.484052           8295   938            915            5922           520            2.7137334e-12
       551   58.686804           8318   938            915            5944           521            2.7208027e-12
       552   58.917732           8348   937            915            5970           526            2.727879e-12 
       553   59.10894            8369   937            915            5988           529            2.7349861e-12
       554   59.302158           8412   937            915            6028           532            2.7420777e-12
       555   59.508824           8444   936            915            6058           535            2.7491708e-12
       556   59.711258           8469   936            915            6081           537            2.7562728e-12
       557   59.904052           8497   936            914            6107           540            2.7633484e-12
       558   60.106557           8531   936            914            6138           543            2.770427e-12 
       559   60.302441           8566   936            914            6171           545            2.7775126e-12
       560   60.546558           8584   936            914            6187           547            2.784599e-12 
       561   60.737481           8610   936            914            6211           549            2.7916911e-12
       562   60.931844           8637   936            914            6237           550            2.7987702e-12
       563   61.125796           8667   936            914            6263           554            2.8058479e-12
       564   61.329177           8689   936            913            6285           555            2.8129329e-12
       565   61.549738           8713   936            913            6308           556            2.820013e-12 
       566   61.751243           8738   936            913            6332           557            2.8271499e-12
       567   61.943699           8766   936            912            6359           559            2.8342904e-12
       568   62.144351           8798   936            911            6386           565            2.8414114e-12
       569   62.339758           8825   935            910            6409           571            2.8485433e-12
       570   62.572162           8854   935            910            6435           574            2.8556726e-12
       571   62.77767            8874   935            910            6455           574            2.8627901e-12
       572   62.98294            8897   935            909            6475           578            2.8699021e-12
       573   63.255247           8921   935            909            6497           580            2.8770073e-12
       574   63.478713           8957   935            909            6532           581            2.8841483e-12
       575   63.686412           8986   934            909            6560           583            2.8912701e-12
       576   63.89314            9008   934            909            6582           583            2.8983753e-12
       577   64.108345           9039   933            910            6611           585            2.9054976e-12
       578   64.32173            9073   933            909            6641           590            2.9125832e-12
       579   64.535271           9102   933            909            6670           590            2.9196708e-12
       580   64.79285            9129   933            909            6695           592            2.9267693e-12
       581   65.001522           9161   933            909            6724           595            2.933851e-12 
       582   65.222397           9193   933            909            6755           596            2.9409067e-12
       583   65.438231           9228   932            908            6788           600            2.9479508e-12
       584   65.672956           9261   932            908            6820           601            2.9550074e-12
       585   65.898067           9285   931            908            6842           604            2.9620876e-12
       586   66.129834           9305   930            908            6860           607            2.9691882e-12
       587   66.352103           9329   930            908            6882           609            2.9762581e-12
       588   66.584364           9355   929            908            6907           611            2.9833211e-12
       589   66.815324           9376   929            908            6927           612            2.9903957e-12
       590   67.085696           9401   929            908            6952           612            2.9974375e-12
       591   67.320001           9430   929            906            6978           617            3.0045062e-12
       592   67.573632           9458   929            906            7005           618            3.0115452e-12
       593   67.829314           9484   929            906            7031           618            3.0186057e-12
       594   68.095868           9517   929            905            7059           624            3.0256644e-12
       595   68.352449           9533   929            905            7074           625            3.0327114e-12
       596   68.610367           9573   929            905            7114           625            3.039765e-12 
       597   68.833289           9594   929            905            7134           626            3.0468362e-12
       598   69.075026           9624   929            905            7163           627            3.05387e-12  
       599   69.321506           9648   929            905            7186           628            3.060913e-12 
       600   69.595899           9676   929            905            7211           631            3.0679659e-12
       601   69.833448           9709   928            905            7243           633            3.0750403e-12
       602   70.08563            9739   928            904            7271           636            3.0821012e-12
       603   70.318213           9768   928            904            7299           637            3.0891773e-12
       604   70.558242           9806   927            904            7336           639            3.0962492e-12
       605   70.789458           9832   927            902            7362           641            3.1033316e-12
       606   71.028735           9855   927            902            7382           644            3.1103969e-12
       607   71.269563           9894   927            902            7420           645            3.1174442e-12
       608   71.532118           9919   927            902            7445           645            3.1244972e-12
       609   71.779463           9948   927            902            7470           649            3.1315581e-12
       610   72.08367            9974   927            902            7494           651            3.1386492e-12
       611   72.335401          10005   927            902            7525           651            3.1457614e-12
       612   72.589623          10037   927            902            7557           651            3.1528607e-12
       613   72.835347          10074   926            902            7594           652            3.159978e-12 
       614   73.10578           10107   926            900            7625           656            3.1670958e-12
       615   73.351563          10139   925            900            7655           659            3.174242e-12 
       616   73.624519          10159   925            900            7673           661            3.1813509e-12
       617   73.885773          10194   925            901            7706           662            3.1885025e-12
       618   74.131113          10229   925            901            7740           663            3.1956417e-12
       619   74.392558          10256   924            901            7766           665            3.2027383e-12
       620   74.668125          10275   924            901            7783           667            3.2098801e-12
       621   74.921397          10308   924            901            7813           670            3.2169911e-12
       622   75.171682          10332   924            901            7834           673            3.2241121e-12
       623   75.47208           10367   924            901            7865           677            3.2312479e-12
       624   75.770928          10403   924            901            7899           679            3.2383804e-12
       625   76.051032          10429   924            900            7924           681            3.2454927e-12
       626   76.300486          10452   924            899            7945           684            3.2526243e-12
       627   76.590652          10493   924            899            7985           685            3.2597609e-12
       628   76.881318          10516   924            899            8003           690            3.2669267e-12
       629   77.145244          10542   924            899            8026           693            3.274121e-12 
       630   77.487426          10576   924            899            8057           696            3.2813041e-12
       631   77.776333          10605   924            899            8085           697            3.2885154e-12
       632   78.079264          10639   924            899            8115           701            3.2957207e-12
       633   78.43789           10660   924            899            8136           701            3.302928e-12 
       634   78.710518          10684   924            899            8158           703            3.3101379e-12
       635   79.019196          10712   924            899            8185           704            3.3173225e-12
       636   79.307263          10750   924            900            8219           707            3.3245122e-12
[...]
       735   113.69056          13884   919            893            10835          1237           4.0592582e-12
       736   114.15745          13918   919            893            10863          1243           4.0669486e-12
       737   114.61996          13952   919            893            10890          1250           4.074686e-12 
       738   115.06951          13990   919            893            10919          1259           4.0823809e-12
       739   115.55408          14021   919            893            10941          1268           4.0901018e-12
       740   116.09032          14049   919            893            10958          1279           4.0978558e-12
       741   116.59516          14073   919            893            10979          1282           4.1056012e-12
       742   117.1674           14098   919            893            10997          1289           4.1133583e-12
       743   117.64729          14140   919            894            11031          1296           4.1211428e-12
       744   118.11766          14174   919            894            11056          1305           4.1289239e-12
       745   118.63282          14211   919            894            11085          1313           4.1367154e-12
       746   119.13981          14241   919            894            11110          1318           4.1445173e-12
       747   119.63248          14269   919            894            11135          1321           4.1523635e-12
       748   120.14851          14308   919            894            11165          1330           4.1601815e-12
       749   120.66767          14342   919            894            11192          1337           4.1679803e-12
       750   121.16209          14383   919            894            11225          1345           4.1757912e-12
       751   121.63492          14420   919            894            11255          1352           4.1836288e-12
       752   122.09723          14459   919            894            11287          1359           4.1914679e-12
       753   122.61487          14490   919            894            11309          1368           4.1992932e-12
       754   123.09688          14527   919            894            11340          1374           4.2071267e-12
       755   123.62079          14562   919            894            11368          1381           4.2149397e-12
       756   124.11427          14601   919            895            11399          1388           4.2227656e-12
       757   124.61653          14645   919            895            11434          1397           4.2306334e-12
       758   125.09845          14683   919            895            11462          1407           4.2384945e-12
       759   125.59443          14723   919            895            11492          1417           4.2463848e-12
       760   126.08589          14750   919            895            11513          1423           4.2543009e-12
       761   126.55443          14783   919            895            11536          1433           4.2622046e-12
       762   127.02433          14816   919            895            11562          1440           4.2701465e-12
       763   127.47966          14852   919            895            11589          1449           4.2781007e-12
       764   128.00336          14891   919            895            11620          1457           4.2860699e-12
       765   128.46122          14922   919            895            11646          1462           4.2940206e-12
       766   128.96218          14957   919            895            11673          1470           4.3019777e-12
       767   129.49601          14993   919            895            11696          1483           4.3100002e-12
       768   129.98697          15025   919            895            11721          1490           4.3180016e-12
       769   130.48715          15071   919            895            11760          1497           4.3260387e-12
       770   130.97272          15109   919            895            11790          1505           4.3340943e-12
       771   131.43235          15145   919            895            11819          1512           4.3421508e-12
       772   131.90291          15169   919            895            11837          1518           4.3501823e-12
       773   132.48276          15201   919            895            11866          1521           4.3582374e-12
       774   133.03577          15245   919            895            11900          1531           4.3662855e-12
       775   133.49519          15280   919            895            11928          1538           4.3743223e-12
       776   134.04684          15313   919            895            11950          1549           4.3823671e-12
       777   134.5196           15349   919            895            11983          1552           4.3904272e-12
       778   135.06438          15371   919            895            12004          1553           4.3984871e-12
       779   135.70534          15400   919            895            12025          1561           4.406548e-12 
       780   136.41744          15436   919            895            12053          1569           4.4146082e-12
       781   137.03664          15476   919            895            12085          1577           4.4226773e-12
       782   137.66531          15509   919            895            12110          1585           4.4307393e-12
       783   138.19409          15542   919            895            12135          1593           4.438809e-12 
       784   138.73746          15575   919            895            12163          1598           4.4469052e-12
       785   139.3174           15619   919            895            12199          1606           4.4550376e-12
       786   139.93962          15657   919            895            12232          1611           4.4631696e-12
       787   140.49566          15700   919            895            12264          1622           4.4713032e-12
       788   141.08301          15733   919            895            12292          1627           4.4794625e-12
       789   141.63197          15773   919            895            12324          1635           4.4876552e-12
       790   142.26931          15816   919            895            12360          1642           4.4958756e-12
       791   142.84335          15862   919            895            12402          1646           4.504103e-12 
       792   143.45889          15894   919            895            12427          1653           4.5123294e-12
       793   144.03569          15931   919            895            12454          1663           4.5205785e-12
       794   144.5883           15960   919            895            12470          1676           4.5288852e-12
       795   145.22858          15994   919            894            12496          1685           4.5371807e-12
       796   145.89084          16025   919            894            12523          1689           4.5455178e-12
       797   146.56432          16050   919            894            12545          1692           4.5538127e-12
       798   147.23531          16084   919            894            12571          1700           4.5621353e-12
       799   148.01608          16108   919            894            12589          1706           4.5704253e-12
       800   148.93567          16146   919            894            12620          1713           4.5788013e-12
       801   149.79875          16179   919            894            12644          1722           4.5871709e-12
       802   150.49429          16211   919            894            12666          1732           4.5955747e-12
       803   151.29321          16251   919            894            12699          1739           4.6039874e-12
       804   151.98299          16295   919            894            12733          1749           4.6124205e-12
       805   152.76601          16340   919            895            12769          1757           4.620899e-12 
       806   153.48228          16379   919            895            12803          1762           4.6293434e-12
       807   154.27366          16404   919            895            12818          1772           4.6378371e-12
       808   155.08493          16433   919            895            12839          1780           4.6463497e-12
       809   156.10608          16471   919            895            12868          1789           4.6548857e-12
       810   157.00109          16507   919            895            12900          1793           4.6634227e-12
       811   158.03889          16536   919            895            12926          1796           4.6719774e-12
       812   158.96777          16569   919            895            12948          1807           4.6805173e-12
       813   159.82667          16610   919            895            12987          1809           4.689098e-12 
       814   160.58121          16641   919            895            13014          1813           4.6977204e-12
       815   161.39152          16686   919            895            13054          1818           4.7063812e-12
       816   162.08083          16725   919            896            13081          1829           4.7150247e-12
       817   162.97943          16765   919            896            13116          1834           4.7237064e-12
       818   163.94415          16799   919            896            13143          1841           4.7324033e-12
       819   164.79486          16838   918            896            13175          1849           4.741129e-12 
       820   165.61615          16886   918            896            13213          1859           4.7498713e-12
       821   166.31757          16932   918            896            13252          1866           4.758634e-12 
       822   167.04384          16974   918            896            13287          1873           4.7674427e-12
       823   167.79913          17013   918            896            13315          1884           4.7762602e-12
       824   168.57706          17041   918            896            13334          1893           4.7851153e-12
       825   169.48179          17082   918            896            13369          1899           4.793988e-12 
       826   170.18082          17122   918            896            13398          1910           4.802839e-12 
       827   170.91985          17167   918            896            13436          1917           4.8117002e-12
       828   171.75872          17207   918            896            13461          1932           4.8206644e-12
       829   172.75347          17244   918            896            13491          1939           4.8296692e-12
       830   173.6568           17281   918            896            13521          1946           4.8387045e-12
       831   174.59496          17324   918            896            13556          1954           4.8477695e-12
       832   175.36081          17360   918            896            13581          1965           4.856852e-12 
       833   176.10071          17401   918            896            13614          1973           4.8659753e-12
       834   176.89267          17436   918            895            13637          1986           4.8750944e-12
       835   177.71107          17473   918            895            13667          1993           4.8842468e-12
       836   178.65363          17507   918            895            13692          2002           4.8933884e-12
       837   179.49712          17543   918            895            13721          2009           4.9025851e-12
       838   180.36181          17586   918            895            13757          2016           4.9118005e-12
       839   181.28021          17625   918            895            13789          2023           4.9210157e-12
       840   182.24885          17672   918            895            13827          2032           4.9303052e-12
       841   183.23129          17712   917            895            13858          2042           4.9396334e-12
       842   184.04891          17766   917            895            13900          2054           4.9489735e-12
       843   184.79452          17818   917            895            13940          2066           4.9583224e-12
       844   185.59257          17859   917            895            13973          2074           4.9676891e-12
       845   186.45555          17904   917            895            14009          2083           4.9771028e-12
       846   187.39799          17939   917            895            14035          2092           4.9865097e-12
       847   188.42536          17985   917            895            14071          2102           4.9959833e-12
       848   189.294            18026   917            895            14102          2112           5.0054913e-12
       849   190.22366          18077   917            895            14141          2124           5.0149992e-12
       850   191.23012          18116   916            895            14168          2137           5.0245419e-12
       851   192.3442           18153   916            895            14192          2150           5.0341115e-12
       852   193.38976          18185   916            895            14221          2153           5.043725e-12 
       853   194.65629          18226   916            895            14255          2160           5.0533916e-12
       854   196.00995          18270   916            895            14290          2169           5.0630564e-12
       855   197.09709          18312   916            895            14319          2182           5.0727443e-12
       856   198.2346           18355   916            895            14353          2191           5.0824813e-12
       857   199.21407          18401   915            895            14386          2205           5.0922152e-12
       858   200.36862          18448   915            895            14423          2215           5.1020134e-12
       859   201.44092          18489   915            895            14458          2221           5.1118338e-12
       860   202.54581          18527   915            895            14487          2230           5.1216557e-12
       861   203.48458          18560   915            895            14504          2246           5.1314628e-12
       862   204.57543          18601   915            895            14538          2253           5.1412796e-12
       863   205.68244          18655   915            895            14579          2266           5.1511855e-12
       864   206.82177          18695   915            895            14611          2274           5.1611013e-12
       865   207.70449          18733   915            895            14640          2283           5.1710001e-12
       866   208.60417          18774   915            895            14671          2293           5.180941e-12 
       867   209.70839          18809   915            895            14702          2297           5.1909256e-12
       868   210.72154          18847   915            895            14731          2306           5.2009548e-12
       869   212.07755          18889   915            895            14765          2314           5.2109414e-12
       870   213.40863          18933   915            895            14799          2324           5.2209314e-12
       871   214.76381          18987   915            895            14839          2338           5.2309622e-12
       872   215.93006          19038   915            895            14878          2350           5.2410264e-12
       873   217.25495          19072   915            895            14908          2354           5.2511341e-12
       874   218.63439          19117   915            895            14940          2367           5.2612497e-12
       875   220.27383          19157   915            895            14967          2380           5.2714199e-12
       876   221.73225          19197   915            895            14998          2389           5.2816341e-12
       877   223.24258          19246   915            895            15038          2398           5.2919006e-12
       878   224.56147          19296   915            896            15073          2412           5.3021702e-12
       879   225.77719          19343   915            896            15106          2426           5.3125455e-12
       880   226.87549          19381   915            896            15132          2438           5.3228976e-12
       881   228.30688          19417   915            896            15157          2449           5.3332991e-12
       882   229.79107          19463   915            896            15189          2463           5.3437412e-12
       883   230.87855          19522   915            896            15233          2478           5.3542284e-12
       884   232.13126          19565   915            896            15269          2485           5.3647827e-12
       885   233.95063          19611   915            896            15307          2493           5.3753849e-12
       886   235.35938          19657   915            896            15343          2503           5.3859719e-12
       887   236.88651          19701   915            896            15373          2517           5.3965734e-12
       888   238.04236          19737   915            896            15399          2527           5.4072512e-12
       889   239.2918           19777   915            896            15431          2535           5.4179361e-12
       890   240.9322           19823   915            896            15469          2543           5.4286853e-12
       891   242.23247          19876   915            896            15514          2551           5.4394642e-12
       892   243.58134          19918   915            896            15546          2561           5.4502941e-12
       893   245.26396          19958   915            896            15569          2578           5.4611893e-12
       894   246.84853          20009   915            896            15614          2584           5.4721766e-12
       895   248.48082          20049   915            896            15641          2597           5.4832339e-12
       896   250.23397          20094   915            896            15674          2609           5.4943444e-12
       897   251.69784          20141   915            896            15713          2617           5.5054763e-12
       898   253.30913          20189   915            896            15750          2628           5.5166421e-12
       899   255.35665          20227   915            896            15775          2641           5.5278688e-12
       900   257.19158          20284   915            896            15822          2651           5.5391107e-12
Loop time of 257.192 on 16 procs for 900 steps with 20284 atoms

98.6% CPU use with 16 MPI tasks x 1 OpenMP threads

MPI task timing breakdown:
Section |  min time  |  avg time  |  max time  |%varavg| %total
---------------------------------------------------------------
Pair    | 0.99182    | 15.828     | 86.522     | 602.7 |  6.15
Neigh   | 0.23153    | 3.0531     | 15.989     | 266.2 |  1.19
Comm    | 33.675     | 42.1       | 52.362     |  88.6 | 16.37
Output  | 3.5628     | 3.5631     | 3.5633     |   0.0 |  1.39
Modify  | 89.345     | 176.85     | 201.18     | 233.1 | 68.76
Other   |            | 15.8       |            |       |  6.14

Nlocal:        1267.75 ave        5967 max         130 min
Histogram: 9 2 2 1 0 0 0 0 1 1
Nghost:        1011.06 ave        3287 max          74 min
Histogram: 7 1 3 1 0 1 1 0 0 2
Neighs:        5943.19 ave       31070 max         258 min
Histogram: 9 2 2 1 0 0 0 1 0 1

Total # of neighbors = 95091
Ave neighs/atom = 4.6879807
Neighbor list builds = 2836
Dangerous builds = 51

Total wall time: 0:04:17
