LAMMPS (23 Jun 2022 - Update 4)
  using 1 OpenMP thread(s) per MPI task
package omp 0
using multi-threaded neighbor list subroutines
#-----------------------------------------------------------------------------#
#                NUFEB Simulation: Heterotrophic Biofilm Growth               #
#-----------------------------------------------------------------------------#


#-----------------------------System Settings---------------------------------#

units si                                    # using si units (m, s, kg)
atom_style      coccus                      # using nufeb coccus atom style
atom_modify     map array sort 10 0         # map array - find atoms using indices
		                            # sort every 10

boundary        pp pp ff                    # periodic boundaries in x and y
                                            # fixed boundary in z

newton          off                         # forces between local and ghost
                                            # atoms are computed in each
					     # processor without communication

processors      * * 1                       # processor grid

comm_modify     vel yes                     # communicate velocities for ghost atoms

read_data       atom_ch.in	             # read atom.in file which defines domain size
Reading data file ...
  orthogonal box = (0 0 0) to (6e-05 6e-05 6e-05)
  4 by 4 by 1 MPI processor grid
  reading atoms ...
  150 atoms
  read_data CPU = 0.014 seconds
                                            # and initial atoms


#--------------------Microbes and Functional Groups-------------------------#

group           CROSS1   type 1               # assign type 1,2 atoms to CROSS group
50 atoms in group CROSS1
group           CROSS2   type 2
50 atoms in group CROSS2
group		CHEATER  type 3
50 atoms in group CHEATER
group           dead     type 4
0 atoms in group dead

neighbor        5e-7 bin                   # setting neighbour skin distance and style

neigh_modify    check yes                  # rebuild neighbour list if any atom
                                           # had moved more than half the skin distance


#--------------------------Mesh Grid and Substrates--------------------------#

# defining grid sytle, substrate names, and grid size
grid_style      nufeb/chemostat 3 sub metab1 metab2 5e-6

# set diffusion boundary conditions and initial concentrations (liquid:kg/m3)
grid_modify     set sub      pp pp nd  3e-4
No /omp style for force computation currently active
grid_modify     set metab1   pp pp nd  1e-4
No /omp style for force computation currently active
grid_modify     set metab2   pp pp nd  1e-4
No /omp style for force computation currently active


#--------------------------Biological Processes-------------------------------#

# heterotrophs growth
fix growth_cross1 CROSS1 nufeb/growth/cross1 sub 3.5e-5 metab2 4e-3 metab1 growth 0.003 yield 0.6 decay 2e-6 metab1_exp 20

fix growth_cross2 CROSS2 nufeb/growth/cross2 sub 3.5e-5 metab1 4e-3 metab2 growth 0.003 yield 0.6 decay 2e-6 metab2_exp 20

fix growth_cheater CHEATER nufeb/growth/cheater sub 3.5e-5 metab1 9.6e-4 metab2 9.6e-4 growth 0.003 yield 0.6 decay 2e-6
# heterotrophs division, division diameter: 1.36e-6
fix div1 CROSS1 nufeb/division/coccus 1.36e-6 1234
fix div2 CROSS2 nufeb/division/coccus 1.36e-6 1235
fix div3 CHEATER nufeb/division/coccus 1.36e-6 1236

fix death1 CROSS1 nufeb/death/diameter dead 5.43e-7
fix death2 CROSS2 nufeb/death/diameter dead 5.43e-7
fix death3 CHEATER nufeb/death/diameter dead 5.43e-7

#---------------------------Physical Processes--------------------------------#

pair_style  gran/hooke/history 1e-4 NULL 1e-5 NULL 0.0 0    # pairwise interaction
pair_coeff  * *                                             # between atoms

# pairwise interaction between z-wall and atoms
fix wall all wall/gran hooke/history 1e-3 NULL 1e-4 NULL 0 0 zplane 0.0 1e-04

fix vis all viscous 1e-5                                    # viscous damping force

fix grav all gravity 9.81 vector 0.0 0.0 -1.0

fix nve all nve/limit 1e-7                                  # NVE integration with
                                                            # maximum distance limit


#---------------------------Post-Physical Processes---------------------------#

fix coeff_sub all nufeb/diffusion_coeff sub ratio 0.8       # defining diffusion coeff in the biofilm
fix coeff_metab1 all nufeb/diffusion_coeff metab1 ratio 0.8    # region is 80% of the value in liquid
fix coeff_metab2 all nufeb/diffusion_coeff metab2 ratio 0.8

#---------------------------Chemical Processes---------------------------------#

fix diff_sub all nufeb/diffusion_reaction sub 1e-9        # diffusion reaction for updating
fix diff_metab1 all nufeb/diffusion_reaction metab1 4e-9     # distribusion of substrate concentration
fix diff_metab2 all nufeb/diffusion_reaction metab2 4e-9

#--------------------------Computations and Outputs----------------------------#

variable mass equal "mass(all)"                             # total mass
variable ncross1 equal "count(CROSS1)"                      # total # of CROSS1
variable ncross2 equal "count(CROSS2)"                      # total # of CROSS2
variable ncheater equal "count(CHEATER)"
variable ndead equal "count(dead)"

shell mkdir vtk_NEPS_ch                                            # dump vtk files to /vtk folder
dump du1 all vtk 10 vtk_NEPS_ch/dump*.vtu id type diameter         # require build NUFEB with vtk option
dump du2 all grid/vtk 10 vtk_NEPS_ch/dump_%_*.vti con rea den gro

#dump du3 all movie 10 movie.avi type diameter view 80 60    # dump video
#dump_modify du3 acolor 1 blue acolor 2 lightgrey framerate 10


                                                            # dump hdf5 files to /hdf5 folder
#shell mkdir hdf5                                           # require build NUFEB with hdf5 option
#dump du3 all nufeb/hdf5 10 dump.h5 id type x y z vx vy vz fx fy fz radius conc reac

thermo_style custom step cpu atoms v_ncross1 v_ncross2 v_ncheater v_ndead v_mass     # screen and log outputs
thermo 1
thermo_modify   lost ignore

#-----------------------------------Run----------------------------------------#

# issue run command, define timesteps for physical (pairdt) and chemical (diffdt) processes
run_style nufeb diffdt 1e-4 difftol 1e-6 pairdt 1e-2 pairtol 1 pairmax 1000 diffmax 5000

timestep 3000                                               # define biological timesteps (1000s)

run 900                                                    # growing biofilm for 900x1000s
Generated 0 of 6 mixed pair_coeff terms from geometric mixing rule
Last active /omp style is pair_style gran/hooke/history/omp
Neighbor list info ...
  update every 1 steps, delay 10 steps, check yes
  max neighbors/atom: 2000, page size: 100000
  master list distance cutoff = 2.49e-06
  ghost atom cutoff = 2.49e-06
  binsize = 1.245e-06, bins = 49 49 49
  1 neighbor lists, perpetual/occasional/extra = 1 0 0
  (1) pair gran/hooke/history/omp, perpetual
      attributes: half, newton off, size, history, omp
      pair build: half/size/bin/newtoff/omp
      stencil: full/bin/3d
      bin: standard
Per MPI rank memory allocation (min/avg/max) = 11.02 | 11.02 | 11.02 Mbytes
   Step          CPU          Atoms      v_ncross1      v_ncross2      v_ncheater      v_ndead         v_mass    
         0   0                    150   50             50             50             0              1.3295396e-13
         1   0.39813965           248   87             82             79             0              1.5970559e-13
         2   0.78372309           365   122            125            118            0              1.7432746e-13
         3   1.1704793            414   137            148            129            0              1.8596058e-13
         4   1.4813074            439   146            159            134            0              1.9653579e-13
         5   1.7680697            455   149            166            140            0              2.067069e-13 
         6   2.049623             468   155            170            143            0              2.1666965e-13
         7   2.2914249            491   162            182            147            0              2.2649331e-13
         8   2.4948561            519   172            196            151            0              2.3618675e-13
         9   2.6941043            547   181            211            155            0              2.4576069e-13
        10   2.8843783            570   185            225            160            0              2.5523026e-13
        11   3.0498395            590   193            233            164            0              2.6455004e-13
        12   3.2062956            607   198            240            169            0              2.7377797e-13
        13   3.3546477            634   214            247            173            0              2.8288104e-13
        14   3.4813984            649   220            255            174            0              2.9188105e-13
        15   3.5987264            669   229            262            178            0              3.0078074e-13
        16   3.7176531            689   236            271            182            0              3.0956826e-13
        17   3.8478189            713   250            276            187            0              3.1822153e-13
        18   3.9798552            728   255            283            190            0              3.2678456e-13
        19   4.0962572            741   260            288            193            0              3.3522815e-13
        20   4.2325698            761   267            297            197            0              3.4356601e-13
        21   4.3390935            778   272            304            202            0              3.5182199e-13
        22   4.4555628            798   280            314            204            0              3.5997248e-13
        23   4.5449701            819   288            324            207            0              3.6803264e-13
        24   4.640739             836   295            334            207            0              3.7597687e-13
        25   4.7261428            855   299            344            212            0              3.8381457e-13
        26   4.8103391            866   302            350            214            0              3.9156888e-13
        27   4.8978371            885   310            358            217            0              3.9924066e-13
        28   4.9758473            905   318            366            221            0              4.0681661e-13
        29   5.0605083            924   322            375            227            0              4.1430769e-13
        30   5.1558289            942   328            384            230            0              4.2172037e-13
        31   5.2303176            957   330            393            234            0              4.2905573e-13
        32   5.3213157            972   334            402            236            0              4.3631669e-13
        33   5.3998317            986   342            405            239            0              4.434989e-13 
        34   5.4722792           1002   349            413            240            0              4.5062032e-13
        35   5.5608581           1016   355            417            244            0              4.5766585e-13
        36   5.6329149           1027   359            423            245            0              4.6464948e-13
        37   5.738532            1040   364            430            246            0              4.7155159e-13
        38   5.8485021           1055   371            434            250            0              4.7836656e-13
        39   5.9311242           1069   375            440            254            0              4.8512827e-13
        40   6.0301686           1086   382            445            259            0              4.9180341e-13
        41   6.1114627           1101   389            452            260            0              4.9841997e-13
        42   6.1805847           1115   397            457            261            0              5.0497662e-13
        43   6.2677917           1123   401            460            262            0              5.1145698e-13
        44   6.3515336           1135   406            465            264            0              5.1786012e-13
        45   6.4087938           1155   414            471            270            0              5.2418471e-13
        46   6.4999295           1176   419            483            274            0              5.3046225e-13
        47   6.5779106           1196   427            492            277            0              5.3666312e-13
        48   6.6488741           1211   433            497            281            0              5.4281233e-13
        49   6.7312474           1223   437            502            284            0              5.4889798e-13
        50   6.8320364           1236   439            511            286            0              5.549258e-13 
        51   6.902105            1249   443            517            289            0              5.6089365e-13
        52   6.9758651           1257   447            518            292            0              5.6679698e-13
        53   7.0481215           1270   454            521            295            0              5.7263822e-13
        54   7.1471478           1283   460            525            298            0              5.7840439e-13
        55   7.2305967           1298   465            531            302            0              5.8410679e-13
        56   7.4616243           1313   469            537            307            0              5.8973761e-13
        57   7.5384331           1327   475            544            308            0              5.9530519e-13
        58   7.6111712           1340   479            550            311            0              6.0080886e-13
        59   7.6715738           1349   485            550            314            0              6.0627281e-13
        60   7.7493347           1361   488            556            317            0              6.1166264e-13
        61   7.8113518           1376   493            562            321            0              6.1700592e-13
        62   7.8881597           1390   500            568            322            0              6.2227708e-13
        63   7.9371965           1400   506            568            326            0              6.2749421e-13
        64   8.0079155           1414   512            575            327            0              6.3266379e-13
        65   8.069701            1428   518            580            330            0              6.3778687e-13
        66   8.1290112           1442   523            585            334            0              6.4284963e-13
        67   8.1875589           1453   530            589            334            0              6.4786555e-13
        68   8.2727932           1470   537            594            339            0              6.5284351e-13
        69   8.3318682           1479   541            595            343            0              6.5774974e-13
        70   8.4044624           1493   546            601            346            0              6.6258329e-13
        71   8.463148            1506   549            604            353            0              6.6735442e-13
        72   8.5337445           1518   555            606            357            0              6.7207743e-13
        73   8.5993423           1530   560            609            361            0              6.7676374e-13
        74   8.6545787           1540   566            611            363            0              6.8138098e-13
        75   8.705945            1551   571            615            365            0              6.8595436e-13
        76   8.7858085           1563   575            620            368            0              6.9046297e-13
        77   8.840694            1575   579            625            371            0              6.9489712e-13
        78   8.892672            1584   580            629            375            0              6.9927208e-13
        79   8.9459925           1595   583            633            379            0              7.0359082e-13
        80   9.0183278           1598   583            634            381            0              7.0786155e-13
        81   9.0677397           1607   586            636            385            0              7.120972e-13 
        82   9.1200272           1618   592            640            386            0              7.1627805e-13
        83   9.1797403           1627   594            646            387            0              7.2042193e-13
        84   9.2179246           1641   602            650            389            0              7.244977e-13 
        85   9.2685803           1650   606            655            389            0              7.28526e-13  
        86   9.3230542           1657   607            658            392            0              7.3251884e-13
        87   9.3786161           1666   614            660            392            0              7.3646583e-13
        88   9.4240748           1676   614            666            396            0              7.4034765e-13
        89   9.4690461           1684   616            669            399            0              7.4419941e-13
        90   9.5434883           1690   620            670            400            0              7.4800569e-13
        91   9.5858051           1696   622            671            403            0              7.5176588e-13
        92   9.6447452           1700   624            673            403            0              7.554838e-13 
        93   9.6936883           1711   631            675            405            0              7.5916218e-13
        94   9.7364529           1722   636            676            410            0              7.6280107e-13
        95   9.7779786           1730   636            680            414            0              7.6639659e-13
        96   9.8178811           1739   641            683            415            0              7.6995078e-13
        97   9.8581489           1747   643            686            418            0              7.734654e-13 
        98   9.8962149           1756   648            688            420            0              7.7693819e-13
        99   9.9599559           1770   655            692            423            0              7.8036613e-13
       100   10.013713           1782   660            696            426            0              7.8375768e-13
       101   10.048906           1791   665            698            428            0              7.8712216e-13
       102   10.085894           1798   665            703            430            0              7.9045047e-13
       103   10.126724           1806   668            707            431            0              7.9374162e-13
       104   10.164345           1812   670            709            433            0              7.9700186e-13
       105   10.208992           1824   675            713            436            0              8.0023289e-13
       106   10.250315           1833   678            716            439            0              8.0342757e-13
       107   10.29386            1842   682            718            442            0              8.0658447e-13
       108   10.329447           1848   684            719            445            0              8.0971692e-13
       109   10.371966           1859   688            724            447            0              8.1282389e-13
       110   10.474595           1865   689            725            451            0              8.1589494e-13
       111   10.532161           1871   691            727            453            0              8.1893004e-13
       112   10.577398           1877   694            728            455            0              8.2193834e-13
       113   10.621939           1884   696            730            458            0              8.2489224e-13
       114   10.656088           1890   696            733            461            0              8.2780042e-13
       115   10.691521           1899   698            736            465            0              8.3067694e-13
       116   10.729683           1908   701            740            467            0              8.3352051e-13
       117   10.773015           1914   704            742            468            0              8.3634765e-13
       118   10.806733           1920   706            744            470            0              8.3913931e-13
       119   10.841373           1929   709            748            472            0              8.4189765e-13
       120   10.899327           1938   714            749            475            0              8.446272e-13 
       121   10.932927           1944   717            751            476            0              8.4731845e-13
       122   10.978768           1951   718            755            478            0              8.4999025e-13
       123   11.023013           1959   720            757            482            0              8.5263791e-13
       124   11.059982           1967   724            760            483            0              8.5525949e-13
       125   11.094404           1976   726            763            487            0              8.5785905e-13
       126   11.133796           1982   730            763            489            0              8.6044207e-13
       127   11.172423           1989   731            766            492            0              8.629861e-13 
       128   11.216046           2000   736            769            495            0              8.6551139e-13
       129   11.253949           2005   737            773            495            0              8.680177e-13 
       130   11.301967           2006   737            774            495            0              8.7049936e-13
       131   11.333412           2011   737            775            499            0              8.7296443e-13
       132   11.365968           2017   741            776            500            0              8.7540036e-13
       133   11.39901            2022   744            776            502            0              8.7781497e-13
       134   11.431322           2031   747            780            504            0              8.8020159e-13
       135   11.464827           2041   752            780            509            0              8.8256977e-13
       136   11.496038           2045   753            781            511            0              8.8491583e-13
       137   11.526735           2054   758            782            514            0              8.8723686e-13
       138   11.560529           2059   760            783            516            0              8.8953951e-13
       139   11.596337           2065   762            784            519            0              8.9182588e-13
       140   11.64891            2068   763            785            520            0              8.9409357e-13
       141   11.680539           2074   765            786            523            0              8.9634548e-13
       142   11.709314           2080   768            786            526            0              8.9856254e-13
       143   11.75591            2091   772            789            530            0              9.007571e-13 
       144   11.808836           2097   774            791            532            0              9.0292245e-13
       145   11.83801            2104   778            792            534            0              9.0506789e-13
       146   11.872375           2113   782            794            537            0              9.0719978e-13
       147   11.9064             2120   784            796            540            0              9.0931828e-13
       148   11.94098            2124   785            796            543            0              9.1143556e-13
       149   11.986134           2133   789            797            547            0              9.135332e-13 
       150   12.034453           2141   792            798            551            0              9.1561732e-13
       151   12.065945           2148   794            798            556            0              9.1766002e-13
       152   12.111905           2154   797            798            559            0              9.1968441e-13
       153   12.14996            2161   801            798            562            0              9.2174202e-13
       154   12.19106            2166   803            799            564            0              9.2378573e-13
       155   12.227041           2172   805            800            567            0              9.2582208e-13
       156   12.26483            2185   812            803            570            0              9.278464e-13 
       157   12.301943           2188   814            803            571            0              9.2986012e-13
       158   12.345352           2193   817            804            572            0              9.3186784e-13
       159   12.382234           2195   817            804            574            0              9.3387298e-13
       160   12.434842           2200   819            805            576            0              9.3582746e-13
       161   12.472898           2210   821            808            581            0              9.377728e-13 
       162   12.510786           2216   822            811            583            0              9.3970722e-13
       163   12.549924           2222   823            812            587            0              9.416292e-13 
       164   12.578474           2225   823            812            590            0              9.4354305e-13
       165   12.614491           2232   827            812            593            0              9.4543798e-13
       166   12.654645           2236   827            815            594            0              9.4732793e-13
       167   12.696111           2239   828            815            596            0              9.4921289e-13
       168   12.737994           2242   830            815            597            0              9.5109362e-13
       169   12.780405           2247   831            817            599            0              9.5296866e-13
       170   12.839565           2249   831            818            600            0              9.5483814e-13
       171   12.883657           2250   832            818            600            0              9.5671004e-13
       172   12.93818            2261   836            820            605            0              9.5858123e-13
       173   12.988042           2265   839            820            606            0              9.6045215e-13
       174   13.037321           2270   840            822            608            0              9.6230947e-13
       175   13.084068           2278   845            822            611            0              9.6416907e-13
       176   13.132322           2282   845            823            614            0              9.6602126e-13
       177   13.181106           2288   845            825            618            0              9.6787638e-13
       178   13.231018           2291   846            826            619            0              9.6973404e-13
       179   13.281996           2293   847            827            619            0              9.7159661e-13
       180   13.351373           2297   849            827            621            0              9.734632e-13 
       181   13.394522           2305   850            829            626            0              9.7534617e-13
       182   13.441977           2312   851            829            632            0              9.7721683e-13
       183   13.498994           2320   853            833            634            0              9.7909944e-13
       184   13.550487           2329   857            834            638            0              9.8099656e-13
       185   13.600933           2341   861            836            644            0              9.8288959e-13
       186   13.647284           2347   862            838            647            0              9.8479459e-13
       187   13.702886           2352   863            838            651            0              9.8670579e-13
       188   13.767858           2357   865            838            654            0              9.8862933e-13
       189   13.827655           2362   866            839            657            0              9.9053794e-13
       190   13.899727           2370   867            842            661            0              9.9244563e-13
       191   13.955954           2378   869            842            667            0              9.9433635e-13
       192   14.010432           2386   870            845            671            0              9.9624812e-13
       193   14.065845           2390   872            847            671            0              9.9817593e-13
       194   14.134723           2394   873            848            673            0              1.0001093e-12
       195   14.192587           2397   873            848            676            0              1.0020691e-12
       196   14.252767           2403   873            848            682            0              1.0040392e-12
       197   14.312204           2408   873            848            687            0              1.0060291e-12
       198   14.3663             2416   874            849            693            0              1.0080354e-12
       199   14.419578           2423   874            850            699            0              1.0100405e-12
       200   14.495409           2430   875            852            703            0              1.0120542e-12
       201   14.565072           2438   876            852            710            0              1.014092e-12 
       202   14.628088           2446   876            852            718            0              1.0161521e-12
       203   14.690167           2449   877            853            719            0              1.018238e-12 
       204   14.759331           2456   878            855            723            0              1.0203413e-12
       205   14.810851           2460   878            856            726            0              1.0224687e-12
       206   14.864174           2463   879            856            728            0              1.0245946e-12
       207   14.922239           2468   879            856            733            0              1.0267276e-12
       208   14.979552           2474   879            858            737            0              1.0288666e-12
       209   15.040937           2485   879            859            747            0              1.0310167e-12
       210   15.123228           2493   881            859            753            0              1.0331831e-12
       211   15.166347           2499   883            860            756            0              1.0353818e-12
       212   15.226605           2505   883            861            761            0              1.0375824e-12
       213   15.272586           2512   883            862            767            0              1.0398042e-12
       214   15.332501           2523   883            864            776            0              1.0420056e-12
       215   15.400922           2530   886            865            779            0              1.044232e-12 
       216   15.462756           2536   887            865            784            0              1.0464819e-12
       217   15.532956           2540   888            865            787            0              1.0487583e-12
       218   15.597772           2548   888            866            794            0              1.0510664e-12
       219   15.669024           2554   888            867            799            0              1.0533972e-12
       220   15.759552           2561   889            869            803            0              1.0557668e-12
       221   15.826268           2565   890            869            806            0              1.058133e-12 
       222   15.898793           2576   890            869            817            0              1.0605247e-12
       223   15.961512           2582   891            870            821            0              1.0629327e-12
       224   16.028239           2588   892            870            826            0              1.0653652e-12
       225   16.084843           2598   892            871            835            0              1.0678148e-12
       226   16.147739           2608   892            874            842            0              1.0702767e-12
       227   16.210986           2617   893            875            849            0              1.0727497e-12
       228   16.266297           2626   895            875            856            0              1.0752467e-12
       229   16.31674            2639   897            876            866            0              1.0777519e-12
       230   16.392904           2647   898            876            873            0              1.0802489e-12
       231   16.449969           2649   898            876            875            0              1.0827481e-12
       232   16.51689            2655   898            877            880            0              1.0852607e-12
       233   16.577295           2662   900            877            885            0              1.0878041e-12
       234   16.651534           2674   900            880            894            0              1.0903584e-12
       235   16.701945           2680   901            881            898            0              1.0929464e-12
       236   16.759823           2691   903            881            907            0              1.0955326e-12
       237   16.818547           2698   905            882            911            0              1.0981282e-12
       238   16.891969           2712   907            882            923            0              1.1007213e-12
       239   16.953797           2722   907            884            931            0              1.1033613e-12
       240   17.059402           2734   909            884            941            0              1.1060095e-12
       241   17.121283           2742   909            886            947            0              1.108674e-12 
       242   17.186176           2748   909            886            953            0              1.1113473e-12
       243   17.244242           2759   911            887            961            0              1.1140327e-12
       244   17.320724           2766   912            888            966            0              1.1167262e-12
       245   17.376728           2774   912            889            973            0              1.1194436e-12
       246   17.435915           2780   912            889            979            0              1.1221542e-12
       247   17.641543           2788   912            890            986            0              1.124877e-12 
       248   17.694204           2794   912            890            992            0              1.1276205e-12
       249   17.755311           2801   913            891            997            0              1.1303624e-12
       250   17.837018           2813   915            891            1007           0              1.1331188e-12
       251   17.915976           2822   917            892            1013           0              1.1358915e-12
       252   17.975021           2828   918            892            1018           0              1.1387149e-12
       253   18.033031           2839   918            893            1028           0              1.1415257e-12
       254   18.087714           2852   918            894            1040           0              1.1443418e-12
       255   18.146213           2861   919            894            1048           0              1.1471484e-12
       256   18.216051           2866   919            896            1051           0              1.1499688e-12
       257   18.292265           2878   920            896            1062           0              1.1528097e-12
       258   18.350947           2886   920            896            1070           0              1.1556691e-12
       259   18.424496           2892   920            896            1076           0              1.1585308e-12
       260   18.511662           2897   920            896            1081           0              1.1614218e-12
       261   18.57274            2914   920            898            1096           0              1.1643279e-12
       262   18.641361           2925   920            899            1106           0              1.1672397e-12
       263   18.72226            2932   920            899            1113           0              1.1701702e-12
       264   18.78428            2946   921            900            1125           0              1.1731252e-12
       265   18.843976           2951   922            900            1129           0              1.1760523e-12
       266   18.895522           2960   922            901            1137           0              1.1789928e-12
       267   18.967292           2969   923            901            1145           0              1.1819248e-12
       268   19.06424            2975   924            901            1150           0              1.1848913e-12
       269   19.151656           2983   924            901            1158           0              1.1878933e-12
       270   19.251181           3004   925            901            1178           0              1.1909187e-12
       271   19.325249           3018   927            901            1190           0              1.1939752e-12
       272   19.389722           3028   928            901            1199           0              1.1970385e-12
       273   19.462622           3035   928            902            1205           0              1.200108e-12 
       274   19.526049           3049   929            903            1217           0              1.2031932e-12
       275   19.611454           3065   930            905            1230           0              1.2062736e-12
       276   19.68797            3078   930            905            1243           0              1.2093964e-12
       277   19.780533           3087   930            905            1252           0              1.2125279e-12
       278   19.88223            3098   931            905            1262           0              1.2156756e-12
       279   19.964312           3106   931            905            1270           0              1.2188809e-12
       280   20.062101           3114   931            905            1278           0              1.2221101e-12
       281   20.137147           3129   932            906            1291           0              1.225348e-12 
       282   20.223458           3135   932            906            1297           0              1.2286035e-12
       283   20.298747           3144   932            906            1306           0              1.2318945e-12
       284   20.388423           3157   932            906            1319           0              1.2351965e-12
       285   20.483781           3169   933            908            1328           0              1.2385306e-12
       286   20.576286           3178   933            908            1337           0              1.2418786e-12
       287   20.665597           3185   933            908            1344           0              1.2452502e-12
       288   20.765502           3196   933            908            1355           0              1.24866e-12  
       289   20.86496            3203   933            909            1361           0              1.2521353e-12
       290   20.989685           3211   934            909            1368           0              1.2556381e-12
       291   21.091844           3220   934            910            1376           0              1.2591624e-12
       292   21.17996            3229   934            910            1385           0              1.2627116e-12
       293   21.290207           3240   934            911            1395           0              1.2662911e-12
       294   21.383599           3256   935            911            1410           0              1.2699209e-12
       295   21.481434           3267   935            911            1421           0              1.2735625e-12
       296   21.567712           3279   935            911            1433           0              1.2772468e-12
       297   21.651194           3291   935            912            1444           0              1.2809535e-12
       298   21.746739           3309   935            912            1462           0              1.2846758e-12
       299   21.855393           3323   935            913            1475           0              1.2884044e-12
       300   21.981207           3341   935            913            1493           0              1.2921882e-12
       301   22.076768           3355   935            913            1506           1              1.2960152e-12
       302   22.181721           3363   935            914            1513           1              1.2998558e-12
       303   22.273501           3375   936            915            1523           1              1.3037477e-12
       304   22.373216           3384   936            915            1531           2              1.307665e-12 
       305   22.483341           3398   936            915            1545           2              1.3116275e-12
       306   22.583563           3410   936            915            1557           2              1.3156376e-12
       307   22.673301           3424   936            916            1570           2              1.3196447e-12
       308   22.762978           3436   936            917            1580           3              1.3236864e-12
       309   22.853987           3447   937            917            1590           3              1.3277364e-12
       310   22.980505           3461   938            917            1603           3              1.3318121e-12
       311   23.08889            3478   938            917            1620           3              1.3359278e-12
       312   23.175573           3489   940            918            1628           3              1.3400497e-12
       313   23.284084           3507   940            919            1643           5              1.3441831e-12
       314   23.377456           3525   941            919            1660           5              1.3483606e-12
       315   23.473961           3531   941            919            1666           5              1.3525578e-12
       316   23.578902           3541   942            919            1675           5              1.3567816e-12
       317   23.673351           3556   942            919            1689           6              1.361044e-12 
       318   23.81192            3569   942            920            1701           6              1.3653278e-12
       319   23.917661           3583   944            920            1712           7              1.3696568e-12
       320   24.03366            3599   945            920            1727           7              1.3740216e-12
       321   24.14345            3613   945            920            1741           7              1.3784021e-12
       322   24.249961           3621   945            920            1749           7              1.3827877e-12
       323   24.355449           3634   945            921            1761           7              1.3871842e-12
       324   24.455003           3645   946            921            1769           9              1.3916082e-12
       325   24.549308           3658   946            921            1782           9              1.3960545e-12
       326   24.647851           3670   946            921            1794           9              1.4004987e-12
       327   24.745733           3685   946            921            1809           9              1.404979e-12 
       328   24.859826           3699   946            921            1822           10             1.4094754e-12
       329   24.94715            3712   946            921            1835           10             1.4139836e-12
       330   25.06919            3723   946            922            1844           11             1.4185006e-12
       331   25.168206           3740   946            922            1861           11             1.4230381e-12
       332   25.270436           3756   946            922            1876           12             1.4275688e-12
       333   25.367484           3772   946            922            1890           14             1.4321453e-12
       334   25.461049           3785   946            922            1903           14             1.4367121e-12
       335   25.589126           3806   946            922            1923           15             1.4412889e-12
       336   25.682021           3825   946            922            1942           15             1.4459321e-12
       337   25.777928           3836   947            922            1950           17             1.4505781e-12
       338   25.868257           3851   947            922            1964           18             1.4552396e-12
       339   25.975235           3870   947            922            1981           20             1.4599056e-12
       340   26.136405           3882   947            923            1992           20             1.4646052e-12
       341   26.247182           3899   947            923            2008           21             1.4693196e-12
       342   26.343583           3912   947            923            2019           23             1.4740401e-12
       343   26.449484           3922   947            923            2026           26             1.4787739e-12
       344   26.567203           3941   947            923            2044           27             1.4835525e-12
       345   26.674327           3952   947            923            2052           30             1.4883227e-12
       346   26.778982           3969   947            923            2067           32             1.4931282e-12
       347   26.902573           3980   947            923            2076           34             1.4979453e-12
       348   27.001196           3993   947            923            2089           34             1.5028084e-12
       349   27.122799           4009   948            923            2102           36             1.5076801e-12
       350   27.242463           4033   948            925            2122           38             1.5125532e-12
       351   27.348586           4052   949            925            2139           39             1.517446e-12 
       352   27.458835           4067   949            925            2154           39             1.5223571e-12
       353   27.567689           4082   950            925            2165           42             1.5272726e-12
       354   27.701796           4098   950            925            2180           43             1.532208e-12 
       355   27.817824           4115   950            925            2197           43             1.5372125e-12
       356   27.941313           4131   951            925            2211           44             1.5422447e-12
       357   28.072932           4148   951            925            2228           44             1.5473132e-12
       358   28.18395            4161   951            925            2241           44             1.5524041e-12
       359   28.284227           4174   952            925            2253           44             1.5575194e-12
       360   28.423475           4192   952            925            2269           46             1.5626489e-12
       361   28.535439           4202   952            925            2278           47             1.5678089e-12
       362   28.66404            4220   952            925            2296           47             1.5729874e-12
       363   28.803751           4237   952            925            2311           49             1.5782008e-12
       364   28.92278            4257   952            925            2330           50             1.5834878e-12
       365   29.045967           4277   952            926            2348           51             1.588798e-12 
       366   29.161495           4295   952            926            2365           52             1.5941462e-12
       367   29.280303           4312   952            926            2380           54             1.599501e-12 
       368   29.403075           4330   952            926            2395           57             1.604895e-12 
       369   29.536809           4349   952            926            2409           62             1.6103196e-12
       370   29.673103           4361   952            926            2420           63             1.6157889e-12
       371   29.789186           4379   952            926            2431           70             1.6212777e-12
       372   29.904335           4396   952            926            2446           72             1.6267909e-12
       373   30.037615           4419   952            926            2466           75             1.6323225e-12
       374   30.160643           4430   952            926            2477           75             1.6379046e-12
       375   30.299157           4448   953            926            2491           78             1.6435133e-12
       376   30.442197           4474   954            926            2515           79             1.6491698e-12
       377   30.566856           4486   954            926            2526           80             1.654883e-12 
       378   30.703148           4503   955            926            2539           83             1.6606214e-12
       379   30.826458           4529   956            926            2564           83             1.6664081e-12
       380   30.982676           4544   956            926            2579           83             1.6722075e-12
       381   31.136791           4560   956            926            2595           83             1.6780437e-12
       382   31.262152           4583   956            926            2615           86             1.6839085e-12
       383   31.386024           4600   956            926            2628           90             1.6898116e-12
       384   31.531359           4622   956            926            2648           92             1.6957358e-12
       385   31.66225            4640   956            926            2664           94             1.7017039e-12
       386   31.828586           4655   956            926            2677           96             1.7077146e-12
       387   31.944705           4685   956            927            2705           97             1.7138054e-12
       388   32.081947           4699   956            927            2715           101            1.7198927e-12
       389   32.212281           4724   956            927            2738           103            1.7259966e-12
       390   32.393797           4742   957            927            2753           105            1.7321069e-12
       391   32.531498           4754   957            927            2763           107            1.7382302e-12
       392   32.747005           4775   957            927            2781           110            1.7443976e-12
       393   32.871906           4795   957            927            2800           111            1.7506022e-12
       394   33.013804           4820   957            927            2823           113            1.7568048e-12
       395   33.140511           4845   957            927            2847           114            1.7630235e-12
       396   33.273573           4860   957            927            2860           116            1.7692776e-12
       397   33.400928           4886   957            927            2884           118            1.775563e-12 
       398   33.521157           4906   957            927            2904           118            1.7818651e-12
       399   33.659239           4931   957            927            2925           122            1.7881832e-12
       400   33.833355           4947   957            928            2937           125            1.7945309e-12
       401   33.974672           4974   957            928            2961           128            1.8008939e-12
       402   34.110167           4993   957            928            2977           131            1.8072899e-12
       403   34.239132           5018   958            928            2998           134            1.8137294e-12
       404   34.365627           5034   958            928            3010           138            1.8201366e-12
       405   34.485438           5051   958            928            3023           142            1.8265755e-12
       406   34.605923           5074   958            928            3046           142            1.8330267e-12
       407   34.72967            5093   958            928            3063           144            1.8394827e-12
       408   34.848932           5112   958            928            3080           146            1.8459227e-12
       409   34.978594           5122   958            928            3089           147            1.8523748e-12
       410   35.125284           5144   958            928            3108           150            1.8588606e-12
       411   35.255829           5166   958            928            3128           152            1.8653217e-12
       412   35.398313           5194   958            928            3156           152            1.8718101e-12
       413   35.525517           5216   958            928            3176           154            1.8783356e-12
       414   35.651776           5237   958            928            3195           156            1.8848743e-12
       415   35.781496           5257   958            928            3215           156            1.8914171e-12
       416   35.929036           5284   958            928            3239           159            1.8979799e-12
       417   36.071477           5305   958            928            3257           162            1.9045341e-12
       418   36.218138           5326   958            928            3276           164            1.9110967e-12
       419   36.349433           5346   958            928            3293           167            1.9176514e-12
       420   36.505525           5364   958            928            3309           169            1.9242069e-12
       421   36.630254           5383   958            928            3323           174            1.930788e-12 
       422   36.770349           5411   958            928            3348           177            1.9373841e-12
       423   36.904393           5439   958            928            3375           178            1.9439674e-12
       424   37.024425           5467   959            928            3402           178            1.9505754e-12
       425   37.148633           5491   959            928            3425           179            1.9571755e-12
       426   37.280596           5513   960            928            3446           179            1.9637797e-12
       427   37.422411           5532   960            928            3464           180            1.9703655e-12
       428   37.543638           5555   960            928            3485           182            1.9769664e-12
       429   37.680691           5574   960            928            3500           186            1.9835654e-12
       430   37.8754             5591   960            928            3515           188            1.9901627e-12
       431   38.022329           5623   960            928            3545           190            1.9968e-12   
       432   38.160539           5639   960            928            3558           193            2.0034215e-12
       433   38.29835            5659   960            928            3575           196            2.0100688e-12
       434   38.45342            5691   960            928            3602           201            2.0167021e-12
       435   38.592934           5711   960            928            3621           202            2.023382e-12 
       436   38.72567            5737   960            928            3645           204            2.0300395e-12
       437   38.884248           5763   960            928            3668           207            2.0367099e-12
       438   39.024441           5779   960            929            3680           210            2.0433886e-12
       439   39.171451           5798   960            929            3697           212            2.0500893e-12
       440   39.341412           5828   960            929            3727           212            2.0567898e-12
       441   39.477226           5850   960            929            3746           215            2.0634879e-12
       442   39.618471           5881   960            930            3774           217            2.0701951e-12
       443   39.752634           5904   960            930            3794           220            2.0768789e-12
       444   39.87617            5918   961            930            3805           222            2.0835824e-12
       445   40.008998           5944   961            930            3828           225            2.090298e-12 
       446   40.155465           5972   961            930            3855           226            2.0970288e-12
       447   40.310799           5997   961            930            3878           228            2.1037476e-12
       448   40.436929           6022   961            930            3900           231            2.1104671e-12
       449   40.58092            6042   961            930            3918           233            2.117211e-12 
       450   40.739766           6064   961            930            3939           234            2.1239448e-12
       451   40.885801           6084   961            930            3958           235            2.130691e-12 
       452   41.032008           6113   961            930            3984           238            2.1374239e-12
       453   41.168934           6131   961            930            4000           240            2.1441514e-12
       454   41.323567           6149   961            930            4015           243            2.1509158e-12
       455   41.469893           6172   961            930            4035           246            2.1576787e-12
       456   41.614877           6200   961            930            4058           251            2.1644569e-12
       457   41.768456           6228   961            930            4081           256            2.1712226e-12
       458   41.91775            6251   961            930            4102           258            2.1779888e-12
       459   42.087772           6276   961            930            4125           260            2.1847553e-12
       460   42.294893           6307   961            930            4153           263            2.1915387e-12
       461   42.444262           6327   961            930            4170           266            2.1983636e-12
       462   42.609068           6350   961            930            4190           269            2.2052224e-12
       463   42.771349           6383   961            930            4220           272            2.2120867e-12
       464   42.936849           6407   961            930            4244           272            2.2189737e-12
       465   43.092011           6430   962            930            4263           275            2.2258557e-12
       466   43.264314           6457   962            930            4286           279            2.2327774e-12
       467   43.433952           6483   962            930            4311           280            2.2397017e-12
       468   43.595996           6507   962            930            4331           284            2.2466441e-12
       469   43.762259           6535   962            930            4357           286            2.2535993e-12
       470   43.940476           6560   962            930            4376           292            2.2605746e-12
       471   44.099214           6589   963            930            4403           293            2.2675389e-12
       472   44.261758           6620   964            930            4431           295            2.2744963e-12
       473   44.402049           6635   964            930            4441           300            2.2814668e-12
       474   44.561281           6661   964            930            4465           302            2.2884622e-12
       475   44.742445           6696   964            930            4498           304            2.2954336e-12
       476   44.896455           6717   964            930            4518           305            2.3024334e-12
       477   45.058346           6747   964            930            4548           305            2.309436e-12 
       478   45.220226           6773   964            930            4571           308            2.3164598e-12
       479   45.377981           6809   964            930            4601           314            2.3234666e-12
       480   45.560511           6825   964            930            4614           317            2.330484e-12 
       481   45.703201           6837   964            930            4623           320            2.3374954e-12
       482   45.869954           6858   964            930            4638           326            2.3445371e-12
       483   46.035555           6887   964            930            4662           331            2.3515693e-12
       484   46.185747           6920   964            930            4690           336            2.3586024e-12
       485   46.335333           6945   964            930            4712           339            2.3656173e-12
       486   46.49608            6974   964            930            4740           340            2.372619e-12 
       487   46.657849           7008   964            930            4771           343            2.3796827e-12
       488   46.81507            7026   964            930            4785           347            2.3867278e-12
       489   46.986135           7055   964            930            4813           348            2.3937773e-12
       490   47.173046           7088   964            929            4839           356            2.4008401e-12
       491   47.334034           7114   964            929            4863           358            2.4078874e-12
       492   47.483263           7132   964            929            4878           361            2.4149293e-12
       493   47.646506           7154   965            929            4893           367            2.4219594e-12
       494   47.886626           7179   965            928            4915           371            2.4289755e-12
       495   48.046804           7211   965            927            4942           377            2.4359988e-12
       496   48.214051           7244   965            927            4974           378            2.4430044e-12
       497   48.396677           7265   964            927            4992           382            2.4500235e-12
       498   48.576347           7281   964            927            5004           386            2.4570552e-12
       499   48.747136           7306   964            927            5028           387            2.4641016e-12
       500   48.999092           7328   964            927            5040           397            2.4711498e-12
       501   49.176456           7351   964            927            5061           399            2.4782063e-12
       502   49.322925           7374   964            927            5081           402            2.4852558e-12
       503   49.506704           7397   964            926            5101           406            2.4922735e-12
       504   49.683054           7425   965            926            5127           407            2.4993173e-12
       505   49.87792            7458   965            924            5153           416            2.5063674e-12
       506   50.04598            7488   965            924            5180           419            2.5134639e-12
       507   50.213605           7514   965            924            5204           421            2.5205359e-12
       508   50.404509           7549   965            924            5238           422            2.527609e-12 
       509   50.570118           7575   966            924            5261           424            2.5346872e-12
       510   50.768907           7599   966            924            5282           427            2.5417697e-12
       511   50.945673           7630   966            924            5312           428            2.5488648e-12
       512   51.116174           7651   966            924            5331           430            2.5559614e-12
       513   51.277194           7678   966            924            5354           434            2.5630735e-12
       514   51.435294           7699   966            924            5372           437            2.5701612e-12
       515   51.593658           7733   965            924            5404           440            2.5772173e-12
       516   51.755871           7759   965            924            5429           441            2.5842688e-12
       517   51.919843           7786   965            924            5453           444            2.5912913e-12
       518   52.08434            7812   965            923            5478           446            2.5983079e-12
       519   52.242734           7834   965            923            5500           446            2.6053146e-12
       520   52.451225           7858   965            923            5520           450            2.6123155e-12
       521   52.637103           7882   965            923            5539           455            2.6193281e-12
       522   52.816115           7907   965            923            5562           457            2.6263418e-12
       523   52.973661           7932   965            922            5583           462            2.6333512e-12
       524   53.141694           7956   965            922            5604           465            2.640347e-12 
       525   53.312119           7979   965            922            5626           466            2.6473539e-12
       526   53.470743           8011   964            922            5658           467            2.6543545e-12
       527   53.647194           8043   964            922            5687           470            2.6613214e-12
       528   53.810767           8064   964            922            5702           476            2.6683201e-12
       529   53.973395           8092   964            922            5728           478            2.6753092e-12
       530   54.220484           8113   964            920            5745           484            2.6822656e-12
       531   54.398421           8147   964            920            5776           487            2.689238e-12 
       532   54.582904           8184   964            919            5811           490            2.6962102e-12
       533   54.756081           8213   962            919            5836           496            2.7032003e-12
       534   54.921673           8236   962            919            5856           499            2.7101829e-12
       535   55.096912           8255   962            919            5873           501            2.7171424e-12
       536   55.272253           8273   962            919            5889           503            2.7241104e-12
       537   55.449763           8301   962            918            5916           505            2.731097e-12 
       538   55.628566           8326   962            917            5940           507            2.7380707e-12
       539   55.805821           8350   963            917            5963           507            2.7450545e-12
       540   56.019029           8387   963            917            5997           510            2.7520362e-12
       541   56.18789            8402   963            917            6011           511            2.759007e-12 
       542   56.364852           8424   962            917            6033           512            2.7659793e-12
       543   56.543514           8447   961            917            6052           517            2.7729622e-12
       544   56.723683           8474   961            917            6077           519            2.7799339e-12
       545   56.880554           8511   960            917            6112           522            2.7868874e-12
       546   57.041293           8535   960            916            6135           524            2.7938055e-12
       547   57.231248           8559   960            916            6154           529            2.8007206e-12
       548   57.424472           8583   960            916            6177           530            2.8076677e-12
       549   57.616671           8609   959            916            6201           533            2.8146255e-12
       550   57.820439           8641   959            916            6231           535            2.8216037e-12
       551   57.995541           8663   959            915            6252           537            2.8285274e-12
       552   58.18593            8690   959            915            6279           537            2.8354368e-12
       553   58.375453           8720   959            915            6307           539            2.8423546e-12
       554   58.559268           8751   959            915            6336           541            2.8492767e-12
       555   58.742072           8778   959            915            6361           543            2.856181e-12 
       556   58.928613           8808   959            915            6389           545            2.8630886e-12
       557   59.113375           8829   959            915            6408           547            2.8699948e-12
       558   59.308427           8862   958            915            6440           549            2.8768913e-12
       559   59.505522           8892   958            915            6470           549            2.8837991e-12
       560   59.781134           8926   959            914            6502           551            2.89071e-12  
       561   59.983477           8953   959            914            6529           551            2.8976207e-12
       562   60.185172           8979   959            913            6555           552            2.9045348e-12
       563   60.345864           9000   959            913            6575           553            2.9114735e-12
       564   60.543699           9025   959            912            6599           555            2.9183534e-12
       565   60.728146           9057   959            912            6628           558            2.9252338e-12
       566   60.93688            9080   959            912            6650           559            2.9321089e-12
       567   61.147666           9112   958            911            6682           561            2.9390338e-12
       568   61.335151           9144   958            910            6712           564            2.9459461e-12
       569   61.541054           9171   958            910            6737           566            2.9528393e-12
       570   61.794403           9193   958            910            6759           566            2.9597765e-12
       571   62.032322           9228   958            910            6794           566            2.9667391e-12
       572   62.223374           9260   959            910            6825           566            2.9737383e-12
       573   62.404644           9289   958            910            6852           569            2.9807021e-12
       574   62.595966           9319   958            910            6879           572            2.9876481e-12
       575   62.792219           9341   958            910            6901           572            2.9945983e-12
       576   63.052314           9376   958            910            6935           573            3.0015623e-12
       577   63.252595           9397   958            909            6955           575            3.0085076e-12
       578   63.472129           9429   958            909            6987           575            3.0154525e-12
       579   63.696969           9455   958            909            7013           575            3.0224036e-12
       580   63.930741           9483   958            909            7039           577            3.0293804e-12
       581   64.117483           9512   958            909            7068           577            3.0363549e-12
       582   64.306017           9539   958            909            7093           579            3.0433132e-12
       583   64.499925           9571   958            909            7123           581            3.050252e-12 
       584   64.707144           9604   958            908            7151           587            3.0571774e-12
       585   64.887121           9637   958            907            7184           588            3.0641254e-12
       586   65.084504           9668   957            907            7214           590            3.071054e-12 
       587   65.32022            9699   957            907            7245           590            3.077988e-12 
       588   65.533482           9725   956            907            7271           591            3.0849865e-12
       589   65.732565           9759   956            907            7303           593            3.0919778e-12
       590   65.974092           9793   956            907            7337           593            3.0989811e-12
       591   66.173772           9826   956            907            7370           593            3.1060006e-12
       592   66.381999           9850   956            907            7392           595            3.1130069e-12
       593   66.577351           9874   956            907            7415           596            3.1200396e-12
       594   66.792605           9901   956            906            7442           597            3.1270546e-12
       595   67.012965           9932   955            906            7472           599            3.1340933e-12
       596   67.222694           9958   955            906            7497           600            3.141144e-12 
       597   67.465753           9991   956            905            7529           601            3.1482054e-12
       598   67.665721          10022   956            905            7560           601            3.1553021e-12
       599   67.862884          10045   955            905            7581           604            3.162359e-12 
       600   68.102903          10072   955            905            7606           606            3.1694226e-12
       601   68.30371           10110   955            905            7644           606            3.1764939e-12
       602   68.517674          10136   954            904            7669           609            3.1835502e-12
       603   68.712205          10163   954            904            7695           610            3.1906231e-12
       604   68.924771          10187   954            904            7717           612            3.1976853e-12
       605   69.139198          10216   954            904            7745           613            3.2047577e-12
       606   69.375105          10243   954            904            7770           615            3.2118241e-12
       607   69.596642          10272   954            904            7798           616            3.2189022e-12
       608   69.79023           10305   954            904            7829           618            3.2259649e-12
       609   69.973011          10332   954            904            7856           618            3.2330049e-12
       610   70.21276           10367   954            904            7890           619            3.2400199e-12
       611   70.44845           10408   954            904            7929           621            3.2470537e-12
       612   70.685385          10446   954            904            7967           621            3.2541079e-12
       613   70.902043          10482   954            904            8002           622            3.2611756e-12
       614   71.100132          10504   954            904            8024           622            3.2682282e-12
       615   71.315033          10530   954            904            8050           622            3.2752855e-12
       616   71.530314          10563   954            903            8082           624            3.2823494e-12
       617   71.734577          10589   954            903            8106           626            3.2893903e-12
       618   71.947121          10620   952            903            8134           631            3.2964399e-12
       619   72.157051          10642   952            903            8154           633            3.303488e-12 
       620   72.400036          10668   952            903            8180           633            3.3105199e-12
       621   72.612137          10696   951            903            8208           634            3.3175518e-12
       622   72.817766          10726   951            903            8235           637            3.3245858e-12
       623   73.018914          10755   951            903            8263           638            3.3315938e-12
       624   73.228986          10782   951            903            8288           640            3.3385903e-12
       625   73.460552          10816   951            903            8321           641            3.3455995e-12
       626   73.690187          10842   951            903            8344           644            3.3526164e-12
       627   73.903405          10869   951            903            8370           645            3.359634e-12 
       628   74.107531          10902   951            903            8402           646            3.3666534e-12
       629   74.31352           10936   950            903            8436           647            3.3736542e-12
       630   74.552462          10959   949            903            8458           649            3.3806404e-12
       631   74.763437          10974   950            903            8469           652            3.3876281e-12
       632   74.993937          11007   950            903            8499           655            3.3946236e-12
       633   75.207755          11024   950            903            8515           656            3.401606e-12 
       634   75.437886          11055   950            903            8545           657            3.4086197e-12
       635   75.666571          11089   950            903            8578           658            3.4156217e-12
       636   75.89374           11129   950            902            8615           662            3.4226322e-12
[...]
       735   102.60254          14302   941            892            11251          1218           4.1220486e-12
       736   102.90179          14338   941            892            11276          1229           4.1292971e-12
       737   103.20148          14374   941            892            11303          1238           4.1365423e-12
       738   103.50316          14407   941            892            11332          1242           4.1437753e-12
       739   103.82541          14445   941            892            11364          1248           4.1510079e-12
       740   104.18267          14477   941            891            11391          1254           4.1582486e-12
       741   104.47233          14509   941            890            11412          1266           4.1654714e-12
       742   104.77046          14537   941            890            11438          1268           4.1727044e-12
       743   105.07456          14569   941            890            11466          1272           4.1799484e-12
       744   105.36656          14603   941            890            11491          1281           4.1871921e-12
       745   105.67518          14636   941            890            11518          1287           4.1944451e-12
       746   106.00621          14668   941            890            11542          1295           4.2017261e-12
       747   106.34567          14702   941            890            11570          1301           4.209014e-12 
       748   106.67165          14728   941            890            11587          1310           4.2163287e-12
       749   106.97467          14757   941            890            11603          1323           4.2236389e-12
       750   107.32231          14787   941            890            11624          1332           4.2309727e-12
       751   107.63418          14822   941            890            11644          1347           4.2382837e-12
       752   107.95391          14860   941            890            11673          1356           4.2456027e-12
       753   108.25934          14895   941            890            11697          1367           4.2529209e-12
       754   108.67982          14931   941            890            11728          1372           4.2602264e-12
       755   108.98371          14978   941            890            11765          1382           4.267519e-12 
       756   109.29023          15011   941            890            11793          1387           4.2748296e-12
       757   109.58877          15042   941            890            11816          1395           4.2821644e-12
       758   109.88907          15084   941            890            11841          1412           4.2894749e-12
       759   110.18016          15116   941            890            11866          1419           4.2967769e-12
       760   110.55127          15156   941            890            11899          1426           4.3040865e-12
       761   110.84277          15179   941            890            11911          1437           4.3113982e-12
       762   111.17265          15223   941            890            11949          1443           4.3187285e-12
       763   111.48244          15256   941            890            11970          1455           4.3260554e-12
       764   111.84649          15296   941            890            11997          1468           4.3333929e-12
       765   112.20578          15338   941            890            12033          1474           4.3407917e-12
       766   112.53446          15374   941            890            12053          1490           4.3481859e-12
       767   112.84911          15410   941            890            12075          1504           4.3556062e-12
       768   113.17175          15441   941            890            12097          1513           4.363063e-12 
       769   113.47987          15481   941            890            12126          1524           4.3705092e-12
       770   113.86769          15515   941            890            12155          1529           4.3779834e-12
       771   114.14592          15543   941            889            12178          1535           4.3854922e-12
       772   114.44718          15568   941            889            12192          1546           4.3929888e-12
       773   114.80224          15606   941            889            12216          1560           4.4005064e-12
       774   115.12976          15640   941            889            12240          1570           4.4080409e-12
       775   115.48025          15673   941            889            12261          1582           4.4155704e-12
       776   115.82755          15707   941            889            12285          1592           4.4231133e-12
       777   116.19394          15742   941            889            12309          1603           4.4306571e-12
       778   116.54246          15772   941            889            12323          1619           4.4381976e-12
       779   116.90698          15818   941            889            12358          1630           4.4457373e-12
       780   117.26469          15842   941            889            12369          1643           4.4533005e-12
       781   117.60405          15880   941            889            12397          1653           4.4608384e-12
       782   117.95869          15922   941            889            12426          1666           4.4683976e-12
       783   118.35518          15947   941            889            12440          1677           4.4759527e-12
       784   118.83662          15978   941            889            12462          1686           4.4835348e-12
       785   119.23223          16019   941            889            12495          1694           4.4911007e-12
       786   119.54971          16055   941            889            12523          1702           4.498688e-12 
       787   119.90438          16087   941            889            12545          1712           4.5062665e-12
       788   120.27233          16125   941            889            12575          1720           4.5138806e-12
       789   120.62152          16160   941            889            12600          1730           4.5215341e-12
       790   121.05557          16188   941            889            12621          1737           4.5291708e-12
       791   121.44407          16222   941            889            12648          1744           4.536816e-12 
       792   121.83329          16258   941            889            12668          1760           4.5444738e-12
       793   122.244            16290   941            889            12691          1769           4.5521795e-12
       794   122.62087          16334   941            889            12725          1779           4.5598988e-12
       795   122.99983          16380   941            889            12762          1788           4.5676233e-12
       796   123.36304          16418   941            889            12779          1809           4.5753492e-12
       797   123.75323          16451   941            889            12800          1821           4.5830963e-12
       798   124.14384          16486   941            889            12830          1826           4.5908603e-12
       799   124.56249          16519   941            889            12860          1829           4.5986323e-12
       800   125.01553          16561   941            889            12892          1839           4.6064193e-12
       801   125.44208          16596   941            889            12920          1846           4.6142015e-12
       802   125.8912           16621   941            889            12938          1853           4.6219886e-12
       803   126.33175          16650   941            889            12955          1865           4.6297859e-12
       804   126.74451          16693   941            889            12982          1881           4.6375906e-12
       805   127.14513          16727   941            889            13005          1892           4.6454264e-12
       806   127.58043          16772   941            889            13044          1898           4.6532678e-12
       807   127.97222          16806   941            889            13067          1909           4.6611188e-12
       808   128.41743          16844   941            889            13093          1921           4.668965e-12 
       809   128.91356          16867   941            889            13109          1928           4.6768431e-12
       810   129.40102          16909   941            889            13142          1937           4.6847366e-12
       811   129.81817          16938   941            889            13163          1945           4.6926358e-12
       812   130.26024          16976   941            888            13194          1953           4.7005452e-12
       813   130.64394          17013   941            888            13218          1966           4.7085029e-12
       814   131.09148          17049   941            888            13251          1969           4.7164413e-12
       815   131.49976          17084   941            888            13276          1979           4.7244136e-12
       816   131.93705          17134   941            888            13320          1985           4.7323723e-12
       817   132.34708          17174   941            888            13350          1995           4.7403391e-12
       818   132.74514          17219   941            888            13385          2005           4.7483101e-12
       819   133.17805          17261   941            888            13419          2013           4.7563008e-12
       820   133.63278          17291   941            887            13441          2022           4.7643265e-12
       821   134.10611          17322   941            887            13463          2031           4.7723808e-12
       822   134.54971          17360   941            887            13494          2038           4.7804575e-12
       823   134.97912          17397   941            887            13520          2049           4.7885598e-12
       824   135.39712          17435   941            887            13547          2060           4.7966947e-12
       825   135.85835          17484   941            887            13589          2067           4.804791e-12 
       826   136.25812          17518   941            887            13611          2079           4.8129269e-12
       827   136.65866          17554   941            887            13639          2087           4.8210376e-12
       828   137.09664          17594   941            887            13669          2097           4.8291465e-12
       829   137.52185          17629   941            887            13690          2111           4.837275e-12 
       830   138.02112          17668   941            887            13723          2117           4.8453976e-12
       831   138.409            17705   941            887            13757          2120           4.8535467e-12
       832   138.84589          17735   941            887            13781          2126           4.8616889e-12
       833   139.29164          17771   941            886            13803          2141           4.8698295e-12
       834   139.70651          17810   941            886            13832          2151           4.8779879e-12
       835   140.0819           17848   941            886            13861          2160           4.8861522e-12
       836   140.52593          17899   941            886            13902          2170           4.8943133e-12
       837   140.96778          17947   941            886            13932          2188           4.9025004e-12
       838   141.43745          17993   941            886            13974          2192           4.9107061e-12
       839   141.88136          18019   941            886            13993          2199           4.9189194e-12
       840   142.38358          18065   941            886            14023          2215           4.9271463e-12
       841   142.80491          18097   941            886            14044          2226           4.9353772e-12
       842   143.25222          18128   941            886            14068          2233           4.9436385e-12
       843   143.69904          18173   941            886            14107          2239           4.9519044e-12
       844   144.09472          18210   941            886            14133          2250           4.9601796e-12
       845   144.48438          18238   941            886            14148          2263           4.9684586e-12
       846   144.92002          18279   941            886            14173          2279           4.9767134e-12
       847   145.36963          18325   941            886            14210          2288           4.9850065e-12
       848   145.91001          18363   941            886            14238          2298           4.9933097e-12
       849   146.4353           18399   941            886            14263          2309           5.0016324e-12
       850   147.00262          18431   941            886            14278          2326           5.0099615e-12
       851   147.54193          18475   941            886            14314          2334           5.0182843e-12
       852   148.02102          18515   941            886            14343          2345           5.0266445e-12
       853   148.56466          18556   941            886            14376          2353           5.0349989e-12
       854   149.15981          18604   941            886            14421          2356           5.0433461e-12
       855   149.74381          18641   941            886            14449          2365           5.0517231e-12
       856   150.37442          18677   941            885            14477          2374           5.060102e-12 
       857   150.92788          18709   941            885            14501          2382           5.0684931e-12
       858   151.45764          18739   941            885            14524          2389           5.0769264e-12
       859   151.93078          18779   941            885            14551          2402           5.0853431e-12
       860   152.50575          18813   941            885            14574          2413           5.093775e-12 
       861   153.02232          18846   941            885            14599          2421           5.1021802e-12
       862   153.56135          18885   941            885            14624          2435           5.1106137e-12
       863   154.11077          18929   941            885            14660          2443           5.1190656e-12
       864   154.64785          18970   941            885            14693          2451           5.1275469e-12
       865   155.14289          19010   941            885            14720          2464           5.1360034e-12
       866   155.67069          19043   941            885            14744          2473           5.1445216e-12
       867   156.16439          19076   941            885            14763          2487           5.1530568e-12
       868   156.68752          19123   941            885            14794          2503           5.1615972e-12
       869   157.16847          19154   940            885            14818          2511           5.1701786e-12
       870   157.76397          19202   940            885            14857          2520           5.1787908e-12
       871   158.32762          19250   940            885            14891          2534           5.1874279e-12
       872   158.93449          19297   940            885            14932          2540           5.196049e-12 
       873   159.52301          19342   940            885            14964          2553           5.204737e-12 
       874   160.13099          19378   940            885            14992          2561           5.213429e-12 
       875   160.69495          19413   940            885            15016          2572           5.2221287e-12
       876   161.30174          19452   940            885            15046          2581           5.2308675e-12
       877   161.8876           19493   940            884            15075          2594           5.2396293e-12
       878   162.40937          19534   940            884            15103          2607           5.2483872e-12
       879   162.94221          19585   940            884            15150          2611           5.2571795e-12
       880   163.48444          19631   940            884            15185          2622           5.2659965e-12
       881   163.99638          19663   940            884            15200          2639           5.2748063e-12
       882   164.49613          19714   940            884            15238          2652           5.2836304e-12
       883   165.06648          19755   940            884            15270          2661           5.2924693e-12
       884   165.60698          19788   940            884            15294          2670           5.301322e-12 
       885   166.29884          19841   940            884            15331          2686           5.3101978e-12
       886   166.92429          19878   940            884            15355          2699           5.3191253e-12
       887   167.58073          19919   940            884            15389          2706           5.3280697e-12
       888   168.12205          19971   939            884            15434          2714           5.3370389e-12
       889   168.66426          20011   939            884            15458          2730           5.3460423e-12
       890   169.37973          20050   938            884            15489          2739           5.3550793e-12
       891   170.0062           20081   938            884            15507          2752           5.364167e-12 
       892   170.72285          20131   938            884            15552          2757           5.3732511e-12
       893   171.3656           20166   938            884            15577          2767           5.3823658e-12
       894   172.00728          20211   938            884            15607          2782           5.3914843e-12
       895   172.67109          20240   938            884            15628          2790           5.4006617e-12
       896   173.38213          20304   938            884            15680          2802           5.4098365e-12
       897   174.0214           20346   938            884            15702          2822           5.4190317e-12
       898   174.61716          20395   938            884            15743          2830           5.4282504e-12
       899   175.29764          20443   938            884            15781          2840           5.4374928e-12
       900   176.06006          20483   938            884            15816          2845           5.4467655e-12
Loop time of 176.06 on 16 procs for 900 steps with 20483 atoms

98.6% CPU use with 16 MPI tasks x 1 OpenMP threads

MPI task timing breakdown:
Section |  min time  |  avg time  |  max time  |%varavg| %total
---------------------------------------------------------------
Pair    | 0.67347    | 9.0555     | 39.483     | 391.4 |  5.14
Neigh   | 0.20704    | 2.5208     | 9.9245     | 203.8 |  1.43
Comm    | 30.669     | 35.262     | 41.144     |  56.0 | 20.03
Output  | 3.3292     | 3.3294     | 3.3314     |   0.0 |  1.89
Modify  | 74.419     | 114.65     | 128.74     | 156.7 | 65.12
Other   |            | 11.24      |            |       |  6.39

Nlocal:        1280.19 ave        4923 max         131 min
Histogram: 10 0 1 1 0 2 0 0 1 1
Nghost:        1047.44 ave        3336 max          54 min
Histogram: 6 2 2 0 1 2 0 2 0 1
Neighs:        5900.69 ave       25672 max         250 min
Histogram: 10 0 0 2 0 2 1 0 0 1

Total # of neighbors = 94411
Ave neighs/atom = 4.6092369
Neighbor list builds = 2528
Dangerous builds = 38

Total wall time: 0:02:56
