LAMMPS (23 Jun 2022 - Update 4)
  using 1 OpenMP thread(s) per MPI task
package omp 0
using multi-threaded neighbor list subroutines
#-----------------------------------------------------------------------------#
#                NUFEB Simulation: Heterotrophic Biofilm Growth               #
#-----------------------------------------------------------------------------#


#-----------------------------System Settings---------------------------------#

units si                                    # using si units (m, s, kg)
atom_style      coccus                      # using nufeb coccus atom style
atom_modify     map array sort 10 0         # map array - find atoms using indices
		                            # sort every 10

boundary        pp pp ff                    # periodic boundaries in x and y
                                            # fixed boundary in z

newton          off                         # forces between local and ghost
                                            # atoms are computed in each
					     # processor without communication

processors      * * 1                       # processor grid

comm_modify     vel yes                     # communicate velocities for ghost atoms

read_data       atom_ch.in	             # read atom.in file which defines domain size
Reading data file ...
  orthogonal box = (0 0 0) to (6e-05 6e-05 6e-05)
  4 by 4 by 1 MPI processor grid
  reading atoms ...
  150 atoms
  read_data CPU = 0.021 seconds
                                            # and initial atoms


#--------------------Microbes and Functional Groups-------------------------#

group           CROSS1   type 1               # assign type 1,2 atoms to CROSS group
50 atoms in group CROSS1
group           CROSS2   type 2
50 atoms in group CROSS2
group		CHEATER  type 3
50 atoms in group CHEATER
group           dead     type 4
0 atoms in group dead

neighbor        5e-7 bin                   # setting neighbour skin distance and style

neigh_modify    check yes                  # rebuild neighbour list if any atom
                                           # had moved more than half the skin distance


#--------------------------Mesh Grid and Substrates--------------------------#

# defining grid sytle, substrate names, and grid size
grid_style      nufeb/chemostat 3 sub metab1 metab2 5e-6

# set diffusion boundary conditions and initial concentrations (liquid:kg/m3)
grid_modify     set sub      pp pp nd  3e-4
No /omp style for force computation currently active
grid_modify     set metab1   pp pp nd  1e-4
No /omp style for force computation currently active
grid_modify     set metab2   pp pp nd  1e-4
No /omp style for force computation currently active


#--------------------------Biological Processes-------------------------------#

# heterotrophs growth
fix growth_cross1 CROSS1 nufeb/growth/cross1 sub 3.5e-5 metab2 4e-3 metab1 growth 0.0028 yield 0.6 decay 2e-6 metab1_exp 20

fix growth_cross2 CROSS2 nufeb/growth/cross2 sub 3.5e-5 metab1 4e-3 metab2 growth 0.0028 yield 0.6 decay 2e-6 metab2_exp 20

fix growth_cheater CHEATER nufeb/growth/cheater sub 3.5e-5 metab1 9e-4 metab2 9e-4 growth 0.0028 yield 0.6 decay 2e-6
# heterotrophs division, division diameter: 1.36e-6
fix div1 CROSS1 nufeb/division/coccus 1.36e-6 1234
fix div2 CROSS2 nufeb/division/coccus 1.36e-6 1235
fix div3 CHEATER nufeb/division/coccus 1.36e-6 1236

fix death1 CROSS1 nufeb/death/diameter dead 5.43e-7
fix death2 CROSS2 nufeb/death/diameter dead 5.43e-7
fix death3 CHEATER nufeb/death/diameter dead 5.43e-7

#---------------------------Physical Processes--------------------------------#

pair_style  gran/hooke/history 1e-4 NULL 1e-5 NULL 0.0 0    # pairwise interaction
pair_coeff  * *                                             # between atoms

# pairwise interaction between z-wall and atoms
fix wall all wall/gran hooke/history 1e-3 NULL 1e-4 NULL 0 0 zplane 0.0 1e-04

fix vis all viscous 1e-5                                    # viscous damping force

fix grav all gravity 9.81 vector 0.0 0.0 -1.0

fix nve all nve/limit 1e-7                                  # NVE integration with
                                                            # maximum distance limit


#---------------------------Post-Physical Processes---------------------------#

fix coeff_sub all nufeb/diffusion_coeff sub ratio 0.8       # defining diffusion coeff in the biofilm
fix coeff_metab1 all nufeb/diffusion_coeff metab1 ratio 0.8    # region is 80% of the value in liquid
fix coeff_metab2 all nufeb/diffusion_coeff metab2 ratio 0.8

#---------------------------Chemical Processes---------------------------------#

fix diff_sub all nufeb/diffusion_reaction sub 1e-9        # diffusion reaction for updating
fix diff_metab1 all nufeb/diffusion_reaction metab1 4e-9     # distribusion of substrate concentration
fix diff_metab2 all nufeb/diffusion_reaction metab2 4e-9

#--------------------------Computations and Outputs----------------------------#

variable mass equal "mass(all)"                             # total mass
variable ncross1 equal "count(CROSS1)"                      # total # of CROSS1
variable ncross2 equal "count(CROSS2)"                      # total # of CROSS2
variable ncheater equal "count(CHEATER)"
variable ndead equal "count(dead)"

shell mkdir vtk_NEPS_ch                                            # dump vtk files to /vtk folder
dump du1 all vtk 10 vtk_NEPS_ch/dump*.vtu id type diameter         # require build NUFEB with vtk option
dump du2 all grid/vtk 10 vtk_NEPS_ch/dump_%_*.vti con rea den gro

#dump du3 all movie 10 movie.avi type diameter view 80 60    # dump video
#dump_modify du3 acolor 1 blue acolor 2 lightgrey framerate 10


                                                            # dump hdf5 files to /hdf5 folder
#shell mkdir hdf5                                           # require build NUFEB with hdf5 option
#dump du3 all nufeb/hdf5 10 dump.h5 id type x y z vx vy vz fx fy fz radius conc reac

thermo_style custom step cpu atoms v_ncross1 v_ncross2 v_ncheater v_ndead v_mass     # screen and log outputs
thermo 1
thermo_modify   lost ignore

#-----------------------------------Run----------------------------------------#

# issue run command, define timesteps for physical (pairdt) and chemical (diffdt) processes
run_style nufeb diffdt 1e-4 difftol 1e-6 pairdt 1e-2 pairtol 1 pairmax 1000 diffmax 5000

timestep 3000                                               # define biological timesteps (1000s)

run 900                                                    # growing biofilm for 900x1000s
Generated 0 of 6 mixed pair_coeff terms from geometric mixing rule
Last active /omp style is pair_style gran/hooke/history/omp
Neighbor list info ...
  update every 1 steps, delay 10 steps, check yes
  max neighbors/atom: 2000, page size: 100000
  master list distance cutoff = 2.49e-06
  ghost atom cutoff = 2.49e-06
  binsize = 1.245e-06, bins = 49 49 49
  1 neighbor lists, perpetual/occasional/extra = 1 0 0
  (1) pair gran/hooke/history/omp, perpetual
      attributes: half, newton off, size, history, omp
      pair build: half/size/bin/newtoff/omp
      stencil: full/bin/3d
      bin: standard
Per MPI rank memory allocation (min/avg/max) = 11.02 | 11.02 | 11.02 Mbytes
   Step          CPU          Atoms      v_ncross1      v_ncross2      v_ncheater      v_ndead         v_mass    
         0   0                    150   50             50             50             0              1.3295396e-13
         1   0.39477768           248   87             82             79             0              1.5967594e-13
         2   0.77989461           365   121            125            119            0              1.7475196e-13
         3   1.1649733            416   136            148            132            0              1.8667632e-13
         4   1.4774285            438   142            157            139            0              1.9748183e-13
         5   1.7650126            455   148            165            142            0              2.0786439e-13
         6   2.0453886            472   155            170            147            0              2.1803316e-13
         7   2.2946913            492   161            180            151            0              2.2806107e-13
         8   2.5246131            524   171            195            158            0              2.3796491e-13
         9   2.7286907            554   181            209            164            0              2.477508e-13 
        10   2.9370653            574   184            223            167            0              2.5741135e-13
        11   3.1150326            596   192            233            171            0              2.6695056e-13
        12   3.2677944            615   199            240            176            0              2.7638529e-13
        13   3.4249025            635   212            246            177            0              2.8570832e-13
        14   3.5545729            663   223            254            186            0              2.9491562e-13
        15   3.6946166            678   228            261            189            0              3.0402108e-13
        16   3.8175646            698   236            270            192            0              3.1299919e-13
        17   3.9479152            722   246            277            199            0              3.2188061e-13
        18   4.0732852            737   254            280            203            0              3.3068426e-13
        19   4.2200548            751   260            285            206            0              3.3935369e-13
        20   4.3586829            768   265            293            210            0              3.4791232e-13
        21   4.4794368            783   270            302            211            0              3.5634919e-13
        22   4.5842351            798   277            309            212            0              3.6469524e-13
        23   4.6928966            820   283            319            218            0              3.7292172e-13
        24   4.7862975            832   287            325            220            0              3.8105846e-13
        25   4.8814432            857   295            338            224            0              3.8911649e-13
        26   4.9809938            881   305            347            229            0              3.9708243e-13
        27   5.0894632            900   310            357            233            0              4.0497027e-13
        28   5.183653             926   321            367            238            0              4.1276461e-13
        29   5.2775253            939   326            373            240            0              4.2045465e-13
        30   5.3843051            955   329            384            242            0              4.2807929e-13
        31   5.4693785            970   336            390            244            0              4.3562185e-13
        32   5.5816697            983   338            396            249            0              4.4309529e-13
        33   5.6579222            999   341            405            253            0              4.5047442e-13
        34   5.7616314           1012   347            408            257            0              4.5778479e-13
        35   5.846679            1024   349            412            263            0              4.649948e-13 
        36   5.9229276           1038   354            418            266            0              4.7213144e-13
        37   5.9883501           1054   361            422            271            0              4.7919016e-13
        38   6.0676224           1067   366            430            271            0              4.8617141e-13
        39   6.1360481           1081   372            435            274            0              4.930808e-13 
        40   6.2411255           1096   378            443            275            0              4.9992518e-13
        41   6.3238316           1107   383            448            276            0              5.0668189e-13
        42   6.3909902           1119   389            452            278            0              5.1337102e-13
        43   6.4680969           1144   397            461            286            0              5.1998768e-13
        44   6.5276603           1159   405            465            289            0              5.265292e-13 
        45   6.5958435           1175   411            473            291            0              5.3300181e-13
        46   6.6587919           1192   417            480            295            0              5.3940557e-13
        47   6.7414282           1210   424            486            300            0              5.4574402e-13
        48   6.8125391           1221   427            490            304            0              5.5201881e-13
        49   6.9075838           1236   434            492            310            0              5.5819796e-13
        50   7.0097402           1248   438            496            314            0              5.6432484e-13
        51   7.0805136           1261   444            500            317            0              5.7038164e-13
        52   7.1479979           1271   448            504            319            0              5.7637241e-13
        53   7.247377            1291   457            510            324            0              5.8230585e-13
        54   7.3080486           1305   461            517            327            0              5.8817791e-13
        55   7.3812196           1319   468            522            329            0              5.9399041e-13
        56   7.4604303           1326   469            526            331            0              5.9974738e-13
        57   7.5288799           1337   473            530            334            0              6.0540233e-13
        58   7.5843292           1353   480            536            337            0              6.1100548e-13
        59   7.9047831           1370   486            545            339            0              6.1654948e-13
        60   8.0284033           1386   495            549            342            0              6.2203896e-13
        61   8.0884053           1400   502            554            344            0              6.2746986e-13
        62   8.1386655           1413   508            559            346            0              6.328484e-13 
        63   8.1824036           1421   511            563            347            0              6.3816088e-13
        64   8.2297266           1430   514            565            351            0              6.4342867e-13
        65   8.2825027           1447   518            571            358            0              6.486623e-13 
        66   8.3348321           1455   521            573            361            0              6.5384071e-13
        67   8.4093334           1466   524            578            364            0              6.5896178e-13
        68   8.4854994           1477   528            583            366            0              6.6403043e-13
        69   8.5584571           1490   531            587            372            0              6.6904825e-13
        70   8.6304525           1502   535            590            377            0              6.7400221e-13
        71   8.6836683           1513   536            595            382            0              6.7891418e-13
        72   8.7417091           1523   541            597            385            0              6.8377449e-13
        73   8.7993825           1533   544            603            386            0              6.8858327e-13
        74   8.8557247           1545   550            608            387            0              6.9334584e-13
        75   8.9216135           1557   553            613            391            0              6.980573e-13 
        76   8.9727097           1566   555            618            393            0              7.0272551e-13
        77   9.0311399           1573   559            619            395            0              7.0734093e-13
        78   9.0798658           1585   563            624            398            0              7.1190336e-13
        79   9.1271775           1598   570            626            402            0              7.1642221e-13
        80   9.2176444           1608   571            630            407            0              7.2089413e-13
        81   9.2707472           1625   580            634            411            0              7.2531367e-13
        82   9.3185931           1634   582            638            414            0              7.2967677e-13
        83   9.3800191           1644   585            642            417            0              7.3399563e-13
        84   9.438426            1650   587            643            420            0              7.382721e-13 
        85   9.4819217           1659   591            645            423            0              7.4249524e-13
        86   9.5281313           1668   593            649            426            0              7.4667705e-13
        87   9.5761387           1678   598            650            430            0              7.5085059e-13
        88   9.6168896           1685   600            653            432            0              7.5498306e-13
        89   9.6615939           1702   604            659            439            0              7.5908435e-13
        90   9.7363011           1711   606            663            442            0              7.6314641e-13
        91   9.7764483           1720   612            665            443            0              7.6715228e-13
        92   9.8168188           1734   619            669            446            0              7.7111975e-13
        93   9.8640244           1748   623            673            452            0              7.7504255e-13
        94   9.9065631           1758   625            677            456            0              7.7893158e-13
        95   9.9604189           1769   627            681            461            0              7.8278418e-13
        96   10.00999            1780   632            682            466            0              7.8663104e-13
        97   10.0549             1789   639            683            467            0              7.9043684e-13
        98   10.094857           1802   645            685            472            0              7.9420353e-13
        99   10.131737           1810   649            687            474            0              7.9793072e-13
       100   10.207249           1821   652            692            477            0              8.0162343e-13
       101   10.26551            1823   653            693            477            0              8.0527184e-13
       102   10.312229           1832   656            695            481            0              8.0891588e-13
       103   10.353306           1834   657            695            482            0              8.1251227e-13
       104   10.395483           1841   657            698            486            0              8.160751e-13 
       105   10.438583           1857   663            703            491            0              8.1960826e-13
       106   10.48731            1868   667            707            494            0              8.2311417e-13
       107   10.530727           1874   670            708            496            0              8.2657579e-13
       108   10.573866           1880   673            709            498            0              8.300091e-13 
       109   10.616321           1886   674            712            500            0              8.3338234e-13
       110   10.674934           1891   675            714            502            0              8.3672271e-13
       111   10.741258           1892   675            714            503            0              8.4003392e-13
       112   10.79339            1897   677            715            505            0              8.433187e-13 
       113   10.833943           1909   681            715            513            0              8.4656819e-13
       114   10.884254           1916   684            717            515            0              8.4975571e-13
       115   10.946598           1924   686            720            518            0              8.5295051e-13
       116   10.989851           1934   689            721            524            0              8.5612192e-13
       117   11.035469           1944   694            723            527            0              8.5925767e-13
       118   11.072307           1950   697            724            529            0              8.6237896e-13
       119   11.114679           1959   699            727            533            0              8.6547248e-13
       120   11.177707           1966   704            727            535            0              8.6854117e-13
       121   11.221028           1974   706            728            540            0              8.7158851e-13
       122   11.267542           1984   709            730            545            0              8.7461572e-13
       123   11.30762            1991   712            732            547            0              8.7762269e-13
       124   11.368352           2000   716            734            550            0              8.8061108e-13
       125   11.416611           2002   717            735            550            0              8.8359286e-13
       126   11.4674             2013   718            737            558            0              8.8655658e-13
       127   11.516712           2022   720            738            564            0              8.8949929e-13
       128   11.550985           2031   721            740            570            0              8.924293e-13 
       129   11.601775           2042   723            743            576            0              8.9532594e-13
       130   11.669129           2051   728            743            580            0              8.9822743e-13
       131   11.71834            2056   729            745            582            0              9.0110133e-13
       132   11.768805           2062   731            747            584            0              9.0396337e-13
       133   11.819382           2070   735            749            586            0              9.0681353e-13
       134   11.871111           2074   737            749            588            0              9.0965419e-13
       135   11.905757           2085   742            751            592            0              9.124644e-13 
       136   11.956394           2092   745            752            595            0              9.1523511e-13
       137   11.992377           2102   749            753            600            0              9.1799917e-13
       138   12.044329           2111   752            755            604            0              9.2074699e-13
       139   12.10923            2118   752            755            611            0              9.2347918e-13
       140   12.186741           2124   756            755            613            0              9.2621988e-13
       141   12.243258           2131   757            757            617            0              9.2895724e-13
       142   12.301787           2137   759            757            621            0              9.3169244e-13
       143   12.354277           2144   760            758            626            0              9.3442277e-13
       144   12.416605           2149   762            759            628            0              9.3715027e-13
       145   12.470471           2161   765            761            635            0              9.3989287e-13
       146   12.529436           2170   767            761            642            0              9.4262752e-13
       147   12.588236           2175   769            763            643            0              9.4535484e-13
       148   12.653174           2180   769            764            647            0              9.4808226e-13
       149   12.72102            2185   771            764            650            0              9.5079214e-13
       150   12.811472           2194   774            766            654            0              9.535175e-13 
       151   12.920826           2201   777            768            656            0              9.5625918e-13
       152   12.985876           2212   781            769            662            0              9.5898986e-13
       153   13.051977           2218   783            772            663            0              9.6170715e-13
       154   13.106039           2229   789            773            667            0              9.6442964e-13
       155   13.157073           2236   792            773            671            0              9.6715233e-13
       156   13.213702           2241   792            773            676            0              9.6981439e-13
       157   13.264765           2245   793            774            678            0              9.724711e-13 
       158   13.328739           2251   796            775            680            0              9.7513046e-13
       159   13.379975           2264   797            775            692            0              9.7779591e-13
       160   13.557958           2274   800            777            697            0              9.8040774e-13
       161   13.638866           2283   804            778            701            0              9.8298021e-13
       162   13.70777            2290   806            779            705            0              9.8556058e-13
       163   13.770854           2301   807            782            712            0              9.8815393e-13
       164   13.839293           2309   808            783            718            0              9.9073408e-13
       165   13.909501           2320   809            787            724            0              9.9333052e-13
       166   13.973472           2327   810            787            730            0              9.9593929e-13
       167   14.045973           2332   812            787            733            0              9.9855581e-13
       168   14.101586           2337   812            789            736            0              1.0011854e-12
       169   14.160769           2344   814            789            741            0              1.0038039e-12
       170   14.237128           2348   815            790            743            0              1.006427e-12 
       171   14.298106           2358   818            791            749            0              1.0090495e-12
       172   14.356704           2367   821            791            755            0              1.0116904e-12
       173   14.419713           2375   824            791            760            0              1.0143362e-12
       174   14.481982           2384   827            792            765            0              1.0169803e-12
       175   14.532497           2393   829            793            771            0              1.0196249e-12
       176   14.591093           2400   831            793            776            0              1.0222548e-12
       177   14.647723           2407   833            794            780            0              1.0248861e-12
       178   14.709421           2415   834            795            786            0              1.0275297e-12
       179   14.770373           2423   835            796            792            0              1.0301695e-12
       180   14.850463           2432   837            797            798            0              1.0328235e-12
       181   14.90478            2439   839            797            803            0              1.0354928e-12
       182   14.956317           2451   844            798            809            0              1.0381474e-12
       183   15.000777           2457   844            798            815            0              1.0407886e-12
       184   15.058565           2464   846            800            818            0              1.0434201e-12
       185   15.107883           2473   848            801            824            0              1.0460389e-12
       186   15.156576           2484   850            804            830            0              1.0486475e-12
       187   15.216824           2493   852            805            836            0              1.0512461e-12
       188   15.274424           2498   852            805            841            0              1.0538484e-12
       189   15.336077           2508   854            806            848            0              1.0564576e-12
       190   15.409407           2517   856            806            855            0              1.0590736e-12
       191   15.477674           2522   858            807            857            0              1.0616788e-12
       192   15.529898           2530   860            807            863            0              1.064301e-12 
       193   15.583514           2540   862            808            870            0              1.0669202e-12
       194   15.630708           2551   865            809            877            0              1.0695327e-12
       195   15.700519           2565   868            810            887            0              1.0721481e-12
       196   15.760518           2571   868            810            893            0              1.0747707e-12
       197   15.828364           2580   870            810            900            0              1.0773969e-12
       198   15.882324           2584   870            810            904            0              1.0800387e-12
       199   15.936828           2587   871            810            906            0              1.0826791e-12
       200   16.005875           2592   871            811            910            0              1.0853172e-12
       201   16.047722           2602   872            811            919            0              1.0879485e-12
       202   16.112496           2606   872            811            923            0              1.090551e-12 
       203   16.160295           2614   872            812            930            0              1.0931728e-12
       204   16.209167           2619   875            812            932            0              1.0957707e-12
       205   16.268917           2630   877            812            941            0              1.0983792e-12
       206   16.313419           2642   879            815            948            0              1.1009766e-12
       207   16.371019           2655   881            818            956            0              1.1035422e-12
       208   16.412743           2658   881            818            959            0              1.1060943e-12
       209   16.483081           2668   883            818            967            0              1.1086282e-12
       210   16.592183           2671   883            818            970            0              1.11119e-12  
       211   16.649833           2686   884            818            984            0              1.1137656e-12
       212   16.687874           2694   888            818            988            0              1.1163235e-12
       213   16.76115            2704   892            818            994            0              1.1188583e-12
       214   16.815406           2713   893            820            1000           0              1.1214179e-12
       215   16.888531           2724   897            820            1007           0              1.1239829e-12
       216   16.961151           2732   900            821            1011           0              1.1265632e-12
       217   17.033212           2743   901            822            1020           0              1.1291564e-12
       218   17.09275            2747   902            822            1023           0              1.1317599e-12
       219   17.146584           2752   904            822            1026           0              1.134364e-12 
       220   17.246375           2766   904            823            1039           0              1.1369504e-12
       221   17.306175           2773   905            823            1045           0              1.1395609e-12
       222   17.363301           2784   905            824            1055           0              1.1421719e-12
       223   17.441052           2794   905            825            1064           0              1.1447733e-12
       224   17.498372           2803   906            825            1072           0              1.1473952e-12
       225   17.57205            2815   910            826            1079           0              1.1499995e-12
       226   17.661315           2823   910            826            1087           0              1.1526196e-12
       227   17.738711           2830   912            826            1092           0              1.1552744e-12
       228   17.84444            2838   912            827            1099           0              1.1579557e-12
       229   17.944748           2848   913            827            1108           0              1.1607098e-12
       230   18.08856            2859   913            827            1119           0              1.1634907e-12
       231   18.170649           2868   915            828            1125           0              1.166293e-12 
       232   18.258971           2876   915            829            1132           0              1.1691162e-12
       233   18.345394           2884   916            829            1139           0              1.171973e-12 
       234   18.445743           2896   918            829            1149           0              1.1748464e-12
       235   18.518176           2910   920            830            1160           0              1.1777481e-12
       236   18.601469           2918   920            830            1168           0              1.180668e-12 
       237   18.68992            2923   921            830            1172           0              1.1835923e-12
       238   18.776382           2933   923            831            1179           0              1.1865571e-12
       239   18.866491           2941   923            831            1187           0              1.1895472e-12
       240   18.96712            2948   924            831            1193           0              1.1925645e-12
       241   19.038825           2959   924            832            1203           0              1.1956075e-12
       242   19.125222           2969   925            832            1212           0              1.1986549e-12
       243   19.21109            2974   925            832            1217           0              1.2017414e-12
       244   19.302848           2989   927            832            1230           0              1.2048322e-12
       245   19.387987           2999   927            832            1240           0              1.2079455e-12
       246   19.484568           3009   927            833            1249           0              1.2110687e-12
       247   19.565448           3017   927            835            1255           0              1.2142148e-12
       248   19.659207           3030   928            835            1267           0              1.2173627e-12
       249   19.757988           3037   928            835            1274           0              1.2205586e-12
       250   19.871704           3048   930            836            1282           0              1.2238079e-12
       251   19.969496           3063   931            838            1294           0              1.2270879e-12
       252   20.056546           3072   933            838            1301           0              1.2303825e-12
       253   20.144896           3081   933            838            1310           0              1.2336951e-12
       254   20.246965           3093   934            838            1321           0              1.2370452e-12
       255   20.342179           3108   934            839            1335           0              1.2404367e-12
       256   20.431797           3116   934            839            1343           0              1.2438347e-12
       257   20.526153           3128   935            839            1354           0              1.2472625e-12
       258   20.61149            3141   936            839            1366           0              1.2507235e-12
       259   20.703086           3149   936            839            1374           0              1.2541897e-12
       260   20.818225           3161   937            839            1385           0              1.2576751e-12
       261   20.922456           3166   937            839            1390           0              1.2611786e-12
       262   21.00427            3176   937            839            1400           0              1.2647305e-12
       263   21.097128           3187   938            839            1410           0              1.268301e-12 
       264   21.180706           3203   938            839            1426           0              1.2718804e-12
       265   21.271928           3217   938            841            1438           0              1.2754567e-12
       266   21.360436           3226   938            841            1447           0              1.2790505e-12
       267   21.448956           3237   939            841            1457           0              1.2826672e-12
       268   21.55244            3255   940            841            1474           0              1.2863057e-12
       269   21.639734           3267   940            842            1485           0              1.2899778e-12
       270   21.747438           3282   941            842            1499           0              1.293675e-12 
       271   21.822697           3292   942            842            1508           0              1.297378e-12 
       272   21.916083           3302   943            842            1517           0              1.3010819e-12
       273   22.005659           3314   944            842            1528           0              1.3048153e-12
       274   22.091847           3329   944            842            1543           0              1.3085725e-12
       275   22.176489           3340   945            842            1553           0              1.3123258e-12
       276   22.25712            3350   947            842            1561           0              1.3160805e-12
       277   22.337107           3361   948            843            1570           0              1.3198511e-12
       278   22.429527           3374   948            844            1582           0              1.3236349e-12
       279   22.503436           3387   948            844            1595           0              1.3274315e-12
       280   22.622027           3406   949            845            1612           0              1.3312059e-12
       281   22.707337           3415   949            845            1621           0              1.3349837e-12
       282   22.822937           3426   949            845            1632           0              1.3387833e-12
       283   22.933655           3437   949            845            1643           0              1.3426409e-12
       284   23.164373           3444   949            845            1650           0              1.3465224e-12
       285   23.266377           3458   949            845            1664           0              1.3504388e-12
       286   23.397718           3468   950            845            1673           0              1.3544006e-12
       287   23.507374           3481   951            847            1683           0              1.3583887e-12
       288   23.631995           3502   952            848            1702           0              1.3623932e-12
       289   23.734141           3509   952            848            1709           0              1.3664574e-12
       290   23.879523           3524   952            848            1724           0              1.3705292e-12
       291   23.978275           3534   953            848            1732           1              1.3746686e-12
       292   24.09931            3548   954            849            1744           1              1.3787892e-12
       293   24.204984           3566   955            849            1761           1              1.3829488e-12
       294   24.312036           3581   955            849            1776           1              1.3871346e-12
       295   24.408173           3596   955            849            1791           1              1.3913512e-12
       296   24.53361            3609   955            849            1804           1              1.3955723e-12
       297   24.66563            3626   955            849            1821           1              1.399863e-12 
       298   24.796463           3636   956            849            1830           1              1.4042116e-12
       299   24.918407           3657   956            850            1849           2              1.4086106e-12
       300   25.055857           3677   956            850            1869           2              1.4130398e-12
       301   25.183283           3692   956            851            1883           2              1.4175043e-12
       302   25.306764           3706   957            851            1896           2              1.4219889e-12
       303   25.454006           3725   957            851            1915           2              1.4265165e-12
       304   25.586613           3736   958            851            1925           2              1.4311224e-12
       305   25.726416           3754   959            851            1941           3              1.4357788e-12
       306   25.848739           3758   959            851            1945           3              1.4404528e-12
       307   25.970372           3775   959            851            1962           3              1.4451732e-12
       308   26.107514           3797   960            851            1982           4              1.4498814e-12
       309   26.230373           3816   960            851            2001           4              1.4546693e-12
       310   26.393653           3833   961            851            2017           4              1.4594843e-12
       311   26.518624           3847   962            851            2030           4              1.4643248e-12
       312   26.628287           3869   963            851            2050           5              1.4692124e-12
       313   26.763342           3888   963            851            2068           6              1.4740755e-12
       314   26.898034           3905   964            851            2084           6              1.4789811e-12
       315   27.011644           3918   965            851            2096           6              1.4839094e-12
       316   27.162545           3937   965            851            2115           6              1.4888752e-12
       317   27.289507           3950   965            851            2127           7              1.4938905e-12
       318   27.426785           3965   966            851            2141           7              1.4989443e-12
       319   27.577404           3984   970            851            2155           8              1.5040575e-12
       320   27.716368           3998   970            851            2169           8              1.5091975e-12
       321   27.853266           4022   970            852            2192           8              1.5143648e-12
       322   28.00939            4040   971            852            2208           9              1.5195756e-12
       323   28.148965           4054   973            852            2220           9              1.5248499e-12
       324   28.279098           4074   974            853            2237           10             1.5301525e-12
       325   28.396574           4082   974            853            2245           10             1.5354941e-12
       326   28.532459           4104   974            854            2265           11             1.5408452e-12
       327   28.662045           4130   976            854            2289           11             1.546206e-12 
       328   28.784879           4149   976            854            2308           11             1.5516152e-12
       329   28.906852           4158   976            854            2317           11             1.5570293e-12
       330   29.072347           4178   976            854            2336           12             1.5624925e-12
       331   29.199139           4200   976            854            2358           12             1.5679815e-12
       332   29.325797           4217   976            854            2375           12             1.5735059e-12
       333   29.44779            4236   979            854            2391           12             1.5790166e-12
       334   29.570734           4257   980            855            2409           13             1.5845572e-12
       335   29.706444           4274   980            855            2425           14             1.5901301e-12
       336   29.813999           4288   980            855            2438           15             1.5957236e-12
       337   29.952739           4314   981            855            2463           15             1.6013323e-12
       338   30.105193           4337   982            855            2485           15             1.6069561e-12
       339   30.249148           4358   983            855            2505           15             1.6125985e-12
       340   30.441508           4372   985            855            2515           17             1.6182991e-12
       341   30.590066           4396   985            855            2537           19             1.624031e-12 
       342   30.733456           4412   987            855            2551           19             1.6297935e-12
       343   30.856985           4432   987            855            2570           20             1.6355788e-12
       344   30.976958           4452   988            855            2587           22             1.6413848e-12
       345   31.112379           4478   989            855            2611           23             1.6471729e-12
       346   31.214294           4503   994            855            2630           24             1.6529964e-12
       347   31.33781            4528   994            857            2653           24             1.6588042e-12
       348   31.470528           4544   995            857            2668           24             1.6646374e-12
       349   31.599952           4566   995            857            2688           26             1.6704725e-12
       350   31.74712            4586   995            857            2708           26             1.6763253e-12
       351   31.890123           4614   995            857            2735           27             1.6821971e-12
       352   32.013851           4632   996            857            2751           28             1.6880683e-12
       353   32.169448           4652   998            857            2769           28             1.6939555e-12
       354   32.290973           4674   998            857            2791           28             1.6998614e-12
       355   32.415688           4690   999            857            2804           30             1.70575e-12  
       356   32.53133            4711   1000           857            2821           33             1.7116291e-12
       357   32.657784           4736   1003           857            2843           33             1.7175224e-12
       358   32.783945           4758   1003           857            2863           35             1.7234381e-12
       359   32.905152           4778   1003           857            2883           35             1.7293698e-12
       360   33.070046           4800   1003           857            2902           38             1.7352699e-12
       361   33.216792           4820   1004           857            2920           39             1.7412153e-12
       362   33.354898           4843   1006           857            2941           39             1.7471759e-12
       363   33.476845           4862   1008           857            2954           43             1.7531341e-12
       364   33.587818           4882   1009           857            2972           44             1.7590735e-12
       365   33.716704           4904   1011           857            2990           46             1.7650423e-12
       366   33.830671           4934   1013           857            3017           47             1.7709744e-12
       367   33.959747           4956   1014           857            3036           49             1.7769115e-12
       368   34.100263           4980   1015           857            3059           49             1.7828742e-12
       369   34.231212           4998   1017           857            3073           51             1.7888272e-12
       370   34.415857           5019   1017           857            3093           52             1.7947963e-12
       371   34.556546           5038   1017           858            3109           54             1.8008038e-12
       372   34.704172           5057   1017           858            3126           56             1.806803e-12 
       373   34.862265           5081   1019           858            3147           57             1.8128268e-12
       374   35.010551           5098   1020           858            3162           58             1.8188713e-12
       375   35.151085           5120   1021           858            3182           59             1.8249788e-12
       376   35.29854            5142   1021           858            3201           62             1.8311098e-12
       377   35.464962           5163   1021           858            3221           63             1.8372365e-12
       378   35.603292           5186   1022           858            3243           63             1.8433983e-12
       379   35.730603           5210   1024           858            3263           65             1.8495266e-12
       380   35.892541           5230   1024           858            3282           66             1.8556758e-12
       381   36.043684           5249   1025           858            3299           67             1.8618216e-12
       382   36.182289           5266   1025           858            3313           70             1.868012e-12 
       383   36.31399            5294   1027           858            3339           70             1.8741707e-12
       384   36.486327           5322   1028           858            3365           71             1.8803587e-12
       385   36.625756           5347   1028           858            3389           72             1.8865488e-12
       386   36.791592           5373   1030           858            3410           75             1.8927825e-12
       387   36.945564           5399   1030           858            3435           76             1.8990217e-12
       388   37.106789           5426   1031           858            3458           79             1.9052668e-12
       389   37.248593           5452   1033           858            3479           82             1.9115248e-12
       390   37.423111           5480   1033           858            3506           83             1.9177771e-12
       391   37.584392           5497   1033           858            3523           83             1.9240707e-12
       392   37.722775           5516   1033           858            3539           86             1.9303759e-12
       393   37.908771           5541   1035           858            3560           88             1.9366988e-12
       394   38.059551           5566   1035           858            3585           88             1.9430434e-12
       395   38.364134           5583   1035           858            3598           92             1.9493873e-12
       396   38.539618           5608   1036           858            3620           94             1.9557438e-12
       397   38.680703           5623   1036           858            3633           96             1.9621238e-12
       398   38.860347           5642   1037           858            3644           103            1.9685379e-12
       399   39.040072           5665   1037           858            3663           107            1.9749726e-12
       400   39.222323           5684   1037           858            3679           110            1.9814357e-12
       401   39.372189           5716   1037           858            3707           114            1.9879095e-12
       402   39.552401           5750   1039           858            3733           120            1.9944173e-12
       403   39.712347           5778   1041           858            3758           121            2.0009314e-12
       404   39.879803           5801   1042           858            3777           124            2.0074783e-12
       405   40.03536            5817   1042           858            3791           126            2.0140398e-12
       406   40.214736           5838   1043           858            3810           127            2.0205828e-12
       407   40.353282           5856   1043           858            3823           132            2.0271476e-12
       408   40.518101           5882   1043           858            3846           135            2.0336872e-12
       409   40.680778           5905   1044           858            3865           138            2.0402386e-12
       410   40.888047           5925   1044           858            3883           140            2.0468139e-12
       411   41.063465           5954   1045           858            3907           144            2.0534012e-12
       412   41.23105            5976   1046           858            3927           145            2.0599986e-12
       413   41.397735           5996   1047           858            3941           150            2.0665974e-12
       414   41.56612            6015   1047           858            3956           154            2.073202e-12 
       415   41.732245           6037   1048           858            3973           158            2.079803e-12 
       416   41.900575           6067   1048           858            4001           160            2.0864178e-12
       417   42.076524           6094   1048           858            4028           160            2.0930342e-12
       418   42.240846           6123   1048           858            4056           161            2.0996788e-12
       419   42.402101           6154   1049           858            4083           164            2.1063221e-12
       420   42.585218           6176   1050           858            4101           167            2.1129518e-12
       421   42.747533           6203   1051           858            4127           167            2.1195726e-12
       422   42.898482           6229   1051           858            4150           170            2.1261996e-12
       423   43.075971           6258   1051           858            4178           171            2.1328252e-12
       424   43.243309           6289   1052           858            4202           177            2.1394485e-12
       425   43.429552           6313   1052           858            4224           179            2.1461084e-12
       426   43.601595           6342   1053           858            4251           180            2.152775e-12 
       427   43.75344            6359   1053           858            4268           180            2.159443e-12 
       428   43.916248           6383   1053           857            4289           184            2.166097e-12 
       429   44.0646             6404   1053           857            4305           189            2.1727879e-12
       430   44.262026           6422   1053           857            4322           190            2.1794414e-12
       431   44.439518           6451   1053           857            4346           195            2.1861097e-12
       432   44.61569            6466   1055           857            4355           199            2.1927952e-12
       433   44.791953           6484   1055           856            4372           201            2.1994927e-12
       434   44.952778           6505   1056           856            4392           201            2.2061851e-12
       435   45.1411             6528   1056           856            4414           202            2.2128676e-12
       436   45.302221           6551   1056           856            4433           206            2.2195726e-12
       437   45.46728            6580   1059           856            4454           211            2.2262593e-12
       438   45.63886            6606   1060           856            4477           213            2.2329371e-12
       439   45.827048           6634   1060           856            4500           218            2.2396682e-12
       440   46.074005           6658   1060           856            4524           218            2.2463926e-12
       441   46.243382           6673   1060           856            4536           221            2.2531093e-12
       442   46.396136           6698   1060           856            4558           224            2.2598466e-12
       443   46.572631           6724   1061           856            4580           227            2.2665852e-12
       444   46.731498           6738   1062           856            4591           229            2.273293e-12 
       445   46.903915           6759   1062           856            4609           232            2.2800107e-12
       446   47.073785           6775   1062           856            4622           235            2.2867169e-12
       447   47.249086           6799   1062           856            4642           239            2.293437e-12 
       448   47.459147           6829   1062           855            4670           242            2.3002092e-12
       449   47.665973           6861   1063           854            4697           247            2.3069741e-12
       450   47.865075           6887   1063           854            4718           252            2.3137457e-12
       451   48.063746           6919   1063           853            4748           255            2.320515e-12 
       452   48.258224           6950   1064           853            4775           258            2.3273178e-12
       453   48.458811           6979   1064           853            4797           265            2.3341158e-12
       454   48.640674           7008   1064           853            4823           268            2.3409342e-12
       455   48.822868           7034   1064           853            4842           275            2.3477762e-12
       456   49.023772           7059   1064           853            4864           278            2.3546143e-12
       457   49.223646           7091   1064           853            4891           283            2.3614809e-12
       458   49.425303           7113   1064           852            4910           287            2.3683694e-12
       459   49.619073           7137   1065           852            4927           293            2.375278e-12 
       460   49.850795           7169   1065           852            4957           295            2.3821903e-12
       461   50.052173           7194   1066           852            4977           299            2.3890925e-12
       462   50.245547           7222   1065           852            5002           303            2.3959897e-12
       463   50.445791           7247   1065           852            5024           306            2.4028902e-12
       464   50.648838           7276   1065           852            5052           307            2.4097943e-12
       465   50.866474           7300   1065           852            5075           308            2.4167511e-12
       466   51.060324           7317   1067           852            5086           312            2.4237232e-12
       467   51.275934           7347   1069           852            5112           314            2.4307052e-12
       468   51.48613            7374   1068           852            5135           319            2.4377291e-12
       469   51.669675           7402   1068           852            5161           321            2.4447729e-12
       470   51.861041           7417   1069           852            5170           326            2.4517902e-12
       471   52.063986           7445   1070           852            5194           329            2.4588144e-12
       472   52.25737            7467   1070           852            5211           334            2.4658714e-12
       473   52.468006           7494   1069           852            5233           340            2.4729262e-12
       474   52.661161           7523   1068           851            5261           343            2.4799867e-12
       475   52.843326           7541   1068           851            5275           347            2.4870536e-12
       476   53.037926           7576   1068           851            5307           350            2.494125e-12 
       477   53.27837            7607   1068           849            5333           357            2.5012052e-12
       478   53.513136           7629   1068           849            5353           359            2.5083173e-12
       479   53.711615           7654   1067           849            5375           363            2.5154272e-12
       480   53.945613           7682   1067           848            5399           368            2.5225227e-12
       481   54.1297             7711   1068           848            5424           371            2.529628e-12 
       482   54.315089           7737   1068           848            5446           375            2.5367219e-12
       483   54.51912            7764   1069           848            5467           380            2.5438088e-12
       484   54.71325            7788   1068           848            5488           384            2.5509262e-12
       485   54.925688           7823   1068           848            5514           393            2.5580418e-12
       486   55.135685           7864   1068           848            5555           393            2.5651609e-12
       487   55.331621           7894   1068           848            5581           397            2.5723047e-12
       488   55.531749           7922   1068           848            5607           399            2.579446e-12 
       489   55.737546           7941   1068           848            5624           401            2.5866064e-12
       490   55.975517           7966   1068           848            5647           403            2.5937913e-12
       491   56.189121           7990   1068           848            5666           408            2.6009726e-12
       492   56.417781           8023   1068           848            5695           412            2.6081913e-12
       493   56.634108           8052   1070           848            5722           412            2.6154273e-12
       494   56.818248           8078   1069           848            5745           416            2.6226696e-12
       495   57.019702           8106   1069           848            5771           418            2.6298728e-12
       496   57.219628           8139   1069           848            5801           421            2.6370991e-12
       497   57.439052           8167   1069           847            5824           427            2.64433e-12  
       498   57.649012           8186   1068           847            5837           434            2.6515767e-12
       499   57.87141            8218   1068           847            5867           436            2.6588381e-12
       500   58.126819           8242   1068           847            5888           439            2.6661265e-12
       501   58.33979            8273   1068           847            5914           444            2.6733898e-12
       502   58.574546           8301   1068           847            5937           449            2.6807228e-12
       503   58.815536           8326   1067           847            5960           452            2.6880445e-12
       504   59.055245           8349   1067           847            5980           455            2.6954226e-12
       505   59.298604           8381   1067           847            6009           458            2.7028124e-12
       506   59.545171           8408   1067           847            6033           461            2.7102113e-12
       507   59.774267           8442   1067           847            6063           465            2.7176177e-12
       508   59.997155           8469   1067           847            6088           467            2.7250254e-12
       509   60.210708           8495   1066           847            6114           468            2.7324778e-12
       510   60.453541           8512   1066           846            6128           472            2.7399288e-12
       511   60.673638           8538   1066           846            6152           474            2.7473919e-12
       512   60.898895           8559   1066           846            6169           478            2.7548751e-12
       513   61.130249           8581   1066           846            6188           481            2.7623637e-12
       514   61.364782           8612   1066           846            6211           489            2.7698579e-12
       515   61.610064           8633   1065           846            6226           496            2.7773614e-12
       516   61.835225           8666   1065           846            6256           499            2.7848811e-12
       517   62.065221           8696   1064           846            6284           502            2.7923908e-12
       518   62.300652           8725   1064           846            6307           508            2.7998914e-12
       519   62.538533           8758   1064           846            6337           511            2.8074183e-12
       520   62.808879           8782   1063           846            6358           515            2.8149205e-12
       521   63.044817           8812   1062           846            6386           518            2.8224412e-12
       522   63.263244           8839   1062           846            6413           518            2.8299568e-12
       523   63.4984             8867   1062           846            6441           518            2.8374728e-12
       524   63.733612           8892   1063           846            6462           521            2.8449814e-12
       525   63.980699           8927   1063           846            6494           524            2.8524991e-12
       526   64.218069           8956   1063           846            6520           527            2.8600172e-12
       527   64.466978           8997   1062           846            6559           530            2.8675626e-12
       528   64.72064            9025   1062           846            6584           533            2.8751207e-12
       529   64.967623           9054   1062           846            6611           535            2.8826881e-12
       530   65.225314           9076   1062           846            6629           539            2.890242e-12 
       531   65.475261           9100   1062           846            6648           544            2.8977973e-12
       532   65.747577           9138   1062           846            6683           547            2.9053766e-12
       533   66.002476           9174   1062           846            6717           549            2.9129842e-12
       534   66.266236           9206   1062           846            6745           553            2.9205853e-12
       535   66.509085           9244   1062           846            6782           554            2.9282085e-12
       536   66.744688           9276   1062           846            6812           556            2.9358231e-12
       537   66.996391           9307   1061           846            6839           561            2.9434326e-12
       538   67.242363           9332   1060           845            6864           563            2.9510244e-12
       539   67.479101           9374   1059           845            6902           568            2.9586431e-12
       540   67.786779           9402   1058           845            6928           571            2.9662422e-12
       541   68.029687           9427   1058           845            6951           573            2.9738642e-12
       542   68.310888           9463   1057           845            6986           575            2.9814975e-12
       543   68.650801           9501   1056           845            7021           579            2.9891643e-12
       544   68.88347            9530   1056           845            7048           581            2.9968498e-12
       545   69.125901           9556   1055           845            7069           587            3.004521e-12 
       546   69.417389           9588   1054           845            7100           589            3.0121784e-12
       547   69.699054           9627   1053           844            7137           593            3.019867e-12 
       548   69.952873           9660   1053           843            7167           597            3.0275832e-12
       549   70.185842           9688   1052           843            7194           599            3.0352843e-12
       550   70.503891           9705   1052           843            7206           604            3.0429537e-12
       551   70.760648           9733   1051           843            7233           606            3.0506358e-12
       552   71.015507           9759   1051           843            7254           611            3.058318e-12 
       553   71.271866           9778   1051           843            7272           612            3.0660116e-12
       554   71.520789           9812   1052           843            7300           617            3.0737234e-12
       555   71.77955            9839   1052           843            7324           620            3.0814108e-12
       556   72.027642           9871   1050           843            7355           623            3.0890959e-12
       557   72.300372           9903   1049           843            7385           626            3.0967991e-12
       558   72.560519           9941   1049           843            7417           632            3.1045381e-12
       559   72.810122           9986   1049           843            7454           640            3.1122708e-12
       560   73.098993          10011   1049           843            7476           643            3.1200083e-12
       561   73.38677           10052   1048           843            7516           645            3.1277601e-12
       562   73.651924          10080   1048           843            7538           651            3.1355402e-12
       563   73.90449           10106   1048           843            7560           655            3.1433241e-12
       564   74.139413          10127   1048           843            7577           659            3.1510623e-12
       565   74.399944          10154   1048           843            7600           663            3.1588228e-12
       566   74.673863          10189   1046           843            7632           668            3.166596e-12 
       567   74.974907          10232   1046           843            7670           673            3.1743861e-12
       568   75.242496          10268   1046           842            7703           677            3.1821811e-12
       569   75.518539          10302   1046           842            7732           682            3.1899812e-12
       570   75.836696          10338   1046           841            7766           685            3.197788e-12 
       571   76.133107          10377   1046           841            7801           689            3.2056135e-12
       572   76.421715          10403   1046           841            7822           694            3.2134543e-12
       573   76.667517          10431   1046           841            7845           699            3.2212925e-12
       574   76.932697          10465   1048           841            7869           707            3.2290989e-12
       575   77.212744          10491   1048           841            7889           713            3.236936e-12 
       576   77.487835          10528   1048           841            7922           717            3.2447922e-12
       577   77.780836          10560   1048           841            7949           722            3.2526473e-12
       578   78.08679           10598   1048           841            7984           725            3.2605495e-12
       579   78.383711          10630   1048           841            8008           733            3.2684896e-12
       580   78.696597          10661   1048           841            8037           735            3.2764232e-12
       581   78.967966          10686   1048           841            8057           740            3.2843592e-12
       582   79.251161          10716   1047           840            8082           747            3.2922944e-12
       583   79.542533          10746   1045           840            8107           754            3.3002384e-12
       584   79.809923          10777   1044           840            8134           759            3.3082016e-12
       585   80.079481          10803   1044           840            8157           762            3.3161663e-12
       586   80.349169          10838   1042           840            8187           769            3.3241191e-12
       587   80.64586           10881   1042           840            8225           774            3.3320633e-12
       588   80.955246          10921   1042           840            8261           778            3.3400248e-12
       589   81.217529          10958   1042           840            8295           781            3.3479965e-12
       590   81.588575          10989   1042           840            8320           787            3.3559567e-12
       591   81.885305          11025   1040           840            8353           792            3.3639328e-12
       592   82.186759          11066   1039           840            8386           801            3.3719478e-12
       593   82.501142          11096   1039           840            8409           808            3.379969e-12 
       594   82.811292          11125   1039           840            8427           819            3.3879995e-12
       595   83.110861          11155   1039           840            8454           822            3.3960462e-12
       596   83.435728          11184   1039           840            8477           828            3.4040691e-12
       597   83.822383          11214   1039           840            8502           833            3.4121022e-12
       598   84.167623          11241   1039           840            8522           840            3.4201356e-12
       599   84.552236          11277   1040           840            8554           843            3.4281814e-12
       600   84.933388          11315   1039           840            8582           854            3.436264e-12 
       601   85.272634          11350   1037           840            8609           864            3.4443426e-12
       602   85.605234          11394   1037           840            8651           866            3.4524005e-12
       603   85.947543          11428   1037           840            8677           874            3.4605092e-12
       604   86.281229          11459   1037           840            8706           876            3.4686343e-12
       605   86.624006          11495   1035           840            8738           882            3.4767373e-12
       606   87.05254           11520   1035           840            8755           890            3.4848483e-12
       607   87.501952          11555   1035           840            8786           894            3.4929636e-12
       608   87.906009          11588   1035           840            8815           898            3.5010666e-12
       609   88.284006          11618   1032           840            8840           906            3.5092477e-12
       610   88.699724          11650   1030           840            8866           914            3.5173964e-12
       611   89.099433          11686   1028           840            8894           924            3.525554e-12 
       612   89.445154          11719   1028           840            8919           932            3.533761e-12 
       613   89.820561          11756   1028           840            8945           943            3.5419323e-12
       614   90.246864          11789   1028           840            8972           949            3.5500994e-12
       615   90.648542          11831   1028           840            9012           951            3.558272e-12 
       616   91.092738          11857   1028           840            9034           955            3.5664409e-12
       617   91.467575          11888   1026           840            9060           962            3.5746102e-12
       618   91.849046          11924   1026           839            9091           968            3.5827662e-12
       619   92.285376          11962   1025           838            9122           977            3.5909415e-12
       620   92.668364          12005   1025           838            9160           982            3.5991018e-12
       621   93.001161          12040   1025           837            9189           989            3.6072796e-12
       622   93.368458          12070   1025           837            9213           995            3.6154431e-12
       623   93.709281          12107   1023           837            9243           1004           3.623614e-12 
       624   94.048204          12141   1023           836            9271           1011           3.6318175e-12
       625   94.4287            12172   1023           836            9296           1017           3.6400152e-12
       626   94.8178            12211   1022           835            9333           1021           3.6482042e-12
       627   95.141399          12255   1021           834            9369           1031           3.6563868e-12
       628   95.492606          12287   1021           834            9393           1039           3.6645821e-12
       629   95.83193           12314   1021           834            9417           1042           3.6727858e-12
       630   96.223793          12352   1021           834            9447           1050           3.6810029e-12
       631   96.593978          12394   1019           834            9481           1060           3.6891923e-12
       632   96.948815          12427   1019           834            9508           1066           3.6973679e-12
       633   97.351612          12464   1019           834            9540           1071           3.7055627e-12
       634   97.802299          12495   1019           834            9563           1079           3.7137609e-12
       635   98.235699          12533   1019           834            9594           1086           3.7219686e-12
       636   98.824816          12578   1019           834            9629           1096           3.7301877e-12
[...]
       735   158.76371          16231   990            828            12665          1748           4.6072386e-12
       736   159.38783          16277   990            828            12702          1757           4.6167887e-12
       737   160.10916          16326   990            828            12737          1771           4.626311e-12 
       738   160.78699          16367   990            828            12771          1778           4.6358899e-12
       739   161.51453          16414   990            828            12812          1784           4.6454699e-12
       740   162.2847           16458   990            828            12851          1789           4.6550704e-12
       741   162.96921          16498   990            828            12888          1792           4.6647223e-12
       742   163.60702          16531   990            828            12912          1801           4.6743717e-12
       743   164.31774          16581   990            828            12951          1812           4.6839917e-12
       744   165.08856          16638   990            828            13004          1816           4.6936275e-12
       745   165.8549           16680   990            828            13040          1822           4.7032451e-12
       746   166.71067          16717   989            828            13073          1827           4.7129182e-12
       747   167.57931          16771   989            828            13119          1835           4.7226535e-12
       748   168.39088          16814   989            828            13152          1845           4.7324453e-12
       749   169.29314          16851   989            828            13180          1854           4.7422839e-12
       750   170.31921          16897   989            828            13220          1860           4.7521464e-12
       751   171.18506          16937   989            828            13253          1867           4.7620131e-12
       752   172.03932          16977   989            828            13281          1879           4.771883e-12 
       753   172.92231          17027   989            828            13321          1889           4.7818246e-12
       754   173.78395          17069   989            828            13359          1893           4.791801e-12 
       755   174.65064          17109   989            828            13389          1903           4.8017792e-12
       756   175.46734          17162   989            828            13433          1912           4.8118054e-12
       757   176.29015          17196   989            828            13456          1923           4.8218916e-12
       758   177.19483          17233   989            828            13481          1935           4.8320161e-12
       759   178.16474          17265   989            828            13505          1943           4.8422281e-12
       760   179.02258          17315   989            828            13542          1956           4.8524713e-12
       761   179.95409          17358   989            828            13578          1963           4.8627064e-12
       762   180.83354          17404   989            828            13620          1967           4.8729972e-12
       763   181.8831           17444   989            828            13646          1981           4.8833107e-12
       764   183.20736          17482   989            828            13679          1986           4.8936225e-12
       765   184.3346           17522   989            828            13712          1993           4.9040191e-12
       766   185.67596          17570   989            828            13752          2001           4.9144172e-12
       767   187.07108          17625   988            828            13799          2010           4.9248532e-12
       768   188.61382          17667   988            828            13835          2016           4.9353408e-12
       769   189.83995          17717   988            828            13872          2029           4.9458232e-12
       770   191.10933          17760   988            828            13910          2034           4.9563474e-12
       771   192.63765          17795   988            828            13940          2039           4.9668803e-12
       772   193.93739          17836   988            828            13979          2041           4.9774987e-12
       773   195.04511          17884   987            828            14017          2052           4.9881493e-12
       774   196.1297           17928   987            827            14055          2059           4.9988369e-12
       775   197.32871          17988   987            827            14107          2067           5.0095112e-12
       776   198.27056          18036   987            827            14150          2072           5.0202026e-12
       777   199.36986          18076   987            827            14182          2080           5.0309215e-12
       778   200.59929          18117   987            827            14208          2095           5.0416895e-12
       779   201.80479          18170   987            827            14256          2100           5.0525191e-12
       780   203.23             18226   987            827            14304          2108           5.0633745e-12
       781   204.66823          18276   987            827            14342          2120           5.0742569e-12
       782   205.68081          18323   987            827            14384          2125           5.0851733e-12
       783   206.75277          18358   987            827            14405          2139           5.0960926e-12
       784   207.92853          18396   987            827            14429          2153           5.1070202e-12
       785   208.99731          18437   987            827            14461          2162           5.1179936e-12
       786   210.0512           18486   987            827            14504          2168           5.128986e-12 
       787   211.24481          18528   987            827            14537          2177           5.1400266e-12
       788   212.59643          18568   987            827            14571          2183           5.1511023e-12
       789   214.09938          18614   986            827            14608          2193           5.1621922e-12
       790   215.42392          18661   986            827            14649          2199           5.1733033e-12
       791   216.82797          18711   986            827            14690          2208           5.1844192e-12
       792   218.42312          18764   986            827            14730          2221           5.1955557e-12
       793   219.64299          18825   986            827            14782          2230           5.2067006e-12
       794   220.9287           18864   986            827            14814          2237           5.2178723e-12
       795   222.28747          18907   986            827            14852          2242           5.2290546e-12
       796   223.78558          18946   986            827            14880          2253           5.2402479e-12
       797   224.89796          18991   986            827            14919          2259           5.2514816e-12
       798   226.3056           19030   986            827            14951          2266           5.2627424e-12
       799   228.1443           19070   986            827            14984          2273           5.2739653e-12
       800   230.04587          19107   986            827            15016          2278           5.2852322e-12
       801   231.312            19160   986            827            15056          2291           5.2965593e-12
       802   233.01243          19206   986            827            15097          2296           5.3078816e-12
       803   234.36712          19258   986            827            15132          2313           5.3192336e-12
       804   236.05229          19292   986            827            15156          2323           5.3306315e-12
       805   237.73816          19334   986            827            15191          2330           5.3420479e-12
       806   239.28964          19379   986            827            15222          2344           5.3534917e-12
       807   240.66998          19441   986            827            15276          2352           5.364977e-12 
       808   242.2794           19490   986            827            15320          2357           5.3765132e-12
       809   243.7346           19536   986            827            15363          2360           5.3880786e-12
       810   245.69549          19580   986            827            15398          2369           5.3996516e-12
       811   247.612            19624   986            827            15432          2379           5.4112796e-12
       812   249.36212          19679   986            827            15474          2392           5.4230062e-12
       813   251.33061          19717   986            827            15502          2402           5.434722e-12 
       814   253.28184          19773   986            827            15547          2413           5.4464405e-12
       815   255.30789          19828   986            827            15600          2415           5.4582109e-12
       816   256.95754          19889   986            827            15655          2421           5.4700418e-12
       817   258.87794          19950   986            827            15707          2430           5.4819232e-12
       818   260.90766          20001   986            827            15747          2441           5.4939059e-12
       819   262.94811          20056   986            827            15795          2448           5.5059872e-12
       820   265.04964          20093   986            827            15823          2457           5.5180658e-12
       821   267.08487          20133   986            826            15850          2471           5.5302089e-12
       822   269.1395           20182   986            826            15890          2480           5.5423946e-12
       823   271.24632          20226   986            826            15927          2487           5.5546316e-12
       824   273.32059          20270   986            826            15955          2503           5.5669136e-12
       825   275.40882          20316   986            826            15992          2512           5.579271e-12 
       826   277.47708          20361   986            826            16029          2520           5.5916723e-12
       827   279.56676          20416   986            826            16076          2528           5.6041058e-12
       828   281.65746          20472   986            826            16121          2539           5.6166377e-12
       829   283.72102          20530   985            826            16169          2550           5.6291792e-12
       830   285.9066           20575   985            826            16205          2559           5.6417358e-12
       831   288.022            20630   985            826            16246          2573           5.6543485e-12
       832   290.15093          20685   985            826            16284          2590           5.6670078e-12
       833   292.27892          20732   985            826            16323          2598           5.6796707e-12
       834   294.41062          20782   985            826            16359          2612           5.6923921e-12
       835   296.56123          20834   985            826            16400          2623           5.705224e-12 
       836   298.68428          20889   985            826            16440          2638           5.71813e-12  
       837   300.85313          20936   984            826            16477          2649           5.731044e-12 
       838   303.00394          20993   984            826            16522          2661           5.7440138e-12
       839   305.1728           21056   984            826            16578          2668           5.7570763e-12
       840   307.42502          21111   984            826            16622          2679           5.7701945e-12
       841   309.6033           21169   984            826            16670          2689           5.7833668e-12
       842   311.82008          21219   984            826            16708          2701           5.7966371e-12
       843   313.99159          21271   984            826            16747          2714           5.8099466e-12
       844   316.17846          21325   984            826            16792          2723           5.8233168e-12
       845   318.36481          21377   984            826            16833          2734           5.8367426e-12
       846   320.56005          21434   984            826            16878          2746           5.8501956e-12
       847   322.77719          21485   984            826            16920          2755           5.8637158e-12
       848   325.00185          21538   984            826            16959          2769           5.8773377e-12
       849   327.22982          21585   984            826            16995          2780           5.8910363e-12
       850   329.52009          21643   984            826            17041          2792           5.9048192e-12
       851   331.7645           21691   984            826            17078          2803           5.918623e-12 
       852   333.99389          21753   984            826            17129          2814           5.9325016e-12
       853   336.22776          21814   984            826            17180          2824           5.9464502e-12
       854   338.47512          21876   984            826            17232          2834           5.9604768e-12
       855   340.7099           21930   984            826            17273          2847           5.9746042e-12
       856   342.98159          21990   984            826            17321          2859           5.9887951e-12
       857   345.22973          22040   984            826            17357          2873           6.0030382e-12
       858   347.50382          22102   984            826            17409          2883           6.0173759e-12
       859   349.77641          22157   984            826            17452          2895           6.0317998e-12
       860   352.10948          22214   984            826            17497          2907           6.0462423e-12
       861   354.39992          22267   984            826            17542          2915           6.0607266e-12
       862   356.67853          22324   984            826            17590          2924           6.0752848e-12
       863   358.9284           22390   984            826            17649          2931           6.0899162e-12
       864   361.22066          22437   984            826            17681          2946           6.1045809e-12
       865   363.5317           22500   984            826            17732          2958           6.1192673e-12
       866   365.8255           22558   984            826            17778          2970           6.1339959e-12
       867   368.17335          22615   984            826            17827          2978           6.1487504e-12
       868   370.50375          22677   984            826            17870          2997           6.1635943e-12
       869   372.82954          22735   983            826            17918          3008           6.178474e-12 
       870   375.22018          22785   983            826            17951          3025           6.193357e-12 
       871   377.57612          22849   983            826            18007          3033           6.2083366e-12
       872   379.96853          22912   983            826            18061          3042           6.223339e-12 
       873   382.42026          22967   983            826            18105          3053           6.2383703e-12
       874   384.79179          23017   983            826            18139          3069           6.2534715e-12
       875   387.18381          23079   983            826            18188          3082           6.2686445e-12
       876   389.59044          23128   983            826            18223          3096           6.2838857e-12
       877   391.98606          23188   983            826            18271          3108           6.2991525e-12
       878   394.40638          23256   983            826            18326          3121           6.3144748e-12
       879   396.85031          23317   983            826            18374          3134           6.3298578e-12
       880   399.33868          23377   983            826            18424          3144           6.3453893e-12
       881   401.76341          23462   983            826            18493          3160           6.3610109e-12
       882   404.17984          23521   983            826            18542          3170           6.3767391e-12
       883   406.61797          23570   983            826            18577          3184           6.3926046e-12
       884   409.0762           23629   983            826            18624          3196           6.4085418e-12
       885   411.53997          23692   983            826            18658          3225           6.4245636e-12
       886   413.98566          23753   983            826            18704          3240           6.4407175e-12
       887   416.46105          23800   983            826            18735          3256           6.4569106e-12
       888   418.95658          23859   983            826            18786          3264           6.4733375e-12
       889   421.44834          23926   983            826            18842          3275           6.4898004e-12
       890   424.02137          24002   983            826            18904          3289           6.5063573e-12
       891   426.52389          24071   983            826            18956          3306           6.523111e-12 
       892   429.03308          24141   982            826            19012          3321           6.5399093e-12
       893   431.55768          24193   982            826            19049          3336           6.5569426e-12
       894   434.08008          24249   982            826            19086          3355           6.5740053e-12
       895   436.60337          24305   982            826            19116          3381           6.5912583e-12
       896   439.13105          24378   982            826            19182          3388           6.608643e-12 
       897   441.64859          24444   981            826            19234          3403           6.626077e-12 
       898   444.15115          24510   981            826            19278          3425           6.6436998e-12
       899   446.69355          24587   981            826            19344          3436           6.6614188e-12
       900   449.30139          24645   981            826            19381          3457           6.6792787e-12
Loop time of 449.302 on 16 procs for 900 steps with 24645 atoms

98.7% CPU use with 16 MPI tasks x 1 OpenMP threads

MPI task timing breakdown:
Section |  min time  |  avg time  |  max time  |%varavg| %total
---------------------------------------------------------------
Pair    | 1.5747     | 37.671     | 185.94     | 953.1 |  8.38
Neigh   | 0.32708    | 5.341      | 27.404     | 368.1 |  1.19
Comm    | 45.595     | 64.091     | 87.84      | 173.9 | 14.26
Output  | 3.5744     | 3.5749     | 3.5753     |   0.0 |  0.80
Modify  | 134.55     | 311.06     | 366.5      | 407.0 | 69.23
Other   |            | 27.57      |            |       |  6.14

Nlocal:        1540.31 ave        7047 max         129 min
Histogram: 9 3 0 2 0 0 0 0 0 2
Nghost:        1249.81 ave        4052 max          76 min
Histogram: 6 2 2 2 0 0 2 0 0 2
Neighs:        7395.06 ave       34709 max         258 min
Histogram: 10 2 0 1 1 0 0 0 0 2

Total # of neighbors = 118321
Ave neighs/atom = 4.8010144
Neighbor list builds = 3864
Dangerous builds = 75

Total wall time: 0:07:29
