LAMMPS (23 Jun 2022 - Update 4)
  using 1 OpenMP thread(s) per MPI task
package omp 0
using multi-threaded neighbor list subroutines
#-----------------------------------------------------------------------------#
#                NUFEB Simulation: Heterotrophic Biofilm Growth               #
#-----------------------------------------------------------------------------#


#-----------------------------System Settings---------------------------------#

units si                                    # using si units (m, s, kg)
atom_style      coccus                      # using nufeb coccus atom style
atom_modify     map array sort 10 0         # map array - find atoms using indices
		                            # sort every 10

boundary        pp pp ff                    # periodic boundaries in x and y
                                            # fixed boundary in z

newton          off                         # forces between local and ghost
                                            # atoms are computed in each
					     # processor without communication

processors      * * 1                       # processor grid

comm_modify     vel yes                     # communicate velocities for ghost atoms

read_data       atom_ch.in	             # read atom.in file which defines domain size
Reading data file ...
  orthogonal box = (0 0 0) to (6e-05 6e-05 6e-05)
  4 by 4 by 1 MPI processor grid
  reading atoms ...
  150 atoms
  read_data CPU = 0.036 seconds
                                            # and initial atoms


#--------------------Microbes and Functional Groups-------------------------#

group           CROSS1   type 1               # assign type 1,2 atoms to CROSS group
50 atoms in group CROSS1
group           CROSS2   type 2
50 atoms in group CROSS2
group		CHEATER  type 3
50 atoms in group CHEATER
group           dead     type 4
0 atoms in group dead
group		EPS	 type 5
0 atoms in group EPS

neighbor        5e-7 bin                   # setting neighbour skin distance and style

neigh_modify    check yes                  # rebuild neighbour list if any atom
                                           # had moved more than half the skin distance


#--------------------------Mesh Grid and Substrates--------------------------#

# defining grid sytle, substrate names, and grid size
grid_style      nufeb/chemostat 3 sub metab1 metab2 5e-6

# set diffusion boundary conditions and initial concentrations (liquid:kg/m3)
grid_modify     set sub      pp pp nd  1.8e-4
No /omp style for force computation currently active
grid_modify     set metab1   pp pp nd  1e-4
No /omp style for force computation currently active
grid_modify     set metab2   pp pp nd  1e-4
No /omp style for force computation currently active


#--------------------------Biological Processes-------------------------------#

# heterotrophs growth
fix growth_cross1 CROSS1 nufeb/growth/cross1 sub 3.5e-5 metab2 4e-3 metab1 growth 0.009 yield 0.6 decay 2.6e-6 metab1_exp 20 epsyield 0.12 epsdens 30

fix growth_cross2 CROSS2 nufeb/growth/cross2 sub 3.5e-5 metab1 4e-3 metab2 growth 0.009 yield 0.6 decay 2.6e-6 metab2_exp 20 epsyield 0.12 epsdens 30

fix growth_cheater CHEATER nufeb/growth/cheater sub 3.5e-5 metab1 1e-3 metab2 1e-3 growth 0.009 yield 0.6 decay 2.6e-6
# heterotrophs division, division diameter: 1.36e-6
fix div1 CROSS1 nufeb/division/coccus 1.36e-6 1234
fix div2 CROSS2 nufeb/division/coccus 1.36e-6 1235
fix div3 CHEATER nufeb/division/coccus 1.36e-6 1236

fix death1 CROSS1 nufeb/death/diameter dead 5.43e-7
fix death2 CROSS2 nufeb/death/diameter dead 5.43e-7
fix death3 CHEATER nufeb/death/diameter dead 5.43e-7

# EPS secretion from heterotrophs
fix eps1 CROSS1 nufeb/eps_secretion 5 EPS 1.1 30 2345
fix eps2 CROSS2 nufeb/eps_secretion 5 EPS 1.1 30 2346

#---------------------------Physical Processes--------------------------------#

pair_style  gran/hooke/history 1e-4 NULL 1e-5 NULL 0.0 0    # pairwise interaction
pair_coeff  * *                                             # between atoms

# pairwise interaction between z-wall and atoms
fix wall all wall/gran hooke/history 1e-3 NULL 1e-4 NULL 0 0 zplane 0.0 1e-04

fix vis all viscous 1e-5                                    # viscous damping force

fix grav all gravity 9.81 vector 0.0 0.0 -1.0

fix nve all nve/limit 1e-7                                  # NVE integration with
                                                            # maximum distance limit


#---------------------------Post-Physical Processes---------------------------#

fix coeff_sub all nufeb/diffusion_coeff sub ratio 0.8       # defining diffusion coeff in the biofilm
fix coeff_metab1 all nufeb/diffusion_coeff metab1 ratio 0.8    # region is 80% of the value in liquid
fix coeff_metab2 all nufeb/diffusion_coeff metab2 ratio 0.8

#---------------------------Chemical Processes---------------------------------#

fix diff_sub all nufeb/diffusion_reaction sub 1e-9        # diffusion reaction for updating
fix diff_metab1 all nufeb/diffusion_reaction metab1 4e-9     # distribusion of substrate concentration
fix diff_metab2 all nufeb/diffusion_reaction metab2 4e-9

#--------------------------Computations and Outputs----------------------------#

variable mass equal "mass(all)"                             # total mass
variable ncross1 equal "count(CROSS1)"                      # total # of CROSS1
variable ncross2 equal "count(CROSS2)"                      # total # of CROSS2
variable ncheater equal "count(CHEATER)"
variable ndead equal "count(dead)"
variable neps equal "count(EPS)"

shell mkdir vtk_EPS_ch                                            # dump vtk files to /vtk folder
dump du1 all vtk 10 vtk_EPS_ch/dump*.vtu id type diameter         # require build NUFEB with vtk option
dump du2 all grid/vtk 10 vtk_EPS_ch/dump_%_*.vti con rea den gro

#dump du3 all movie 10 movie.avi type diameter view 80 60    # dump video
#dump_modify du3 acolor 1 blue acolor 2 lightgrey framerate 10


                                                            # dump hdf5 files to /hdf5 folder
#shell mkdir hdf5                                           # require build NUFEB with hdf5 option
#dump du3 all nufeb/hdf5 10 dump.h5 id type x y z vx vy vz fx fy fz radius conc reac

thermo_style custom step cpu atoms v_ncross1 v_ncross2 v_ncheater v_ndead v_neps v_mass     # screen and log outputs
thermo 1
thermo_modify   lost ignore

#-----------------------------------Run----------------------------------------#

# issue run command, define timesteps for physical (pairdt) and chemical (diffdt) processes
run_style nufeb diffdt 1e-4 difftol 1e-6 pairdt 1e-2 pairtol 1 pairmax 1000 diffmax 5000

timestep 12000                                               # define biological timesteps (1000s)

run 350                                                    # growing biofilm for 900x1000s
Generated 0 of 6 mixed pair_coeff terms from geometric mixing rule
Last active /omp style is pair_style gran/hooke/history/omp
Neighbor list info ...
  update every 1 steps, delay 10 steps, check yes
  max neighbors/atom: 2000, page size: 100000
  master list distance cutoff = 2.49e-06
  ghost atom cutoff = 2.49e-06
  binsize = 1.245e-06, bins = 49 49 49
  1 neighbor lists, perpetual/occasional/extra = 1 0 0
  (1) pair gran/hooke/history/omp, perpetual
      attributes: half, newton off, size, history, omp
      pair build: half/size/bin/newtoff/omp
      stencil: full/bin/3d
      bin: standard
Per MPI rank memory allocation (min/avg/max) = 11.02 | 11.02 | 11.02 Mbytes
   Step          CPU          Atoms      v_ncross1      v_ncross2      v_ncheater      v_ndead         v_neps         v_mass    
         0   0                    150   50             50             50             0              0              1.3295396e-13
         1   0.39116885           432   90             85             86             0              171            1.726983e-13 
         2   0.77516659           798   121            126            136            0              415            1.9537957e-13
         3   1.1112694           1117   128            144            179            0              666            2.1479142e-13
         4   1.4198697           1434   136            152            204            0              942            2.3293852e-13
         5   1.6215696           1749   141            160            224            0              1224           2.5058946e-13
         6   1.8198269           2073   147            166            240            0              1520           2.681072e-13 
         7   2.057181            2433   156            181            259            0              1837           2.8545681e-13
         8   2.2176443           2784   163            188            281            0              2152           3.0245662e-13
         9   2.3650801           3150   166            197            298            0              2489           3.1911121e-13
        10   2.5471025           3521   176            206            312            0              2827           3.3509738e-13
        11   2.6684699           3917   182            217            338            0              3180           3.5094652e-13
        12   2.7813093           4300   188            224            360            0              3528           3.6648695e-13
        13   2.9312946           4711   190            232            384            0              3905           3.8185924e-13
        14   3.0521647           5098   191            235            406            0              4266           3.9670485e-13
        15   3.1504388           5478   193            236            421            0              4628           4.1108829e-13
        16   3.2424511           5856   197            237            442            0              4980           4.2475274e-13
        17   3.3313573           6240   203            241            458            0              5338           4.3813037e-13
        18   3.435139            6638   206            248            472            0              5712           4.5091572e-13
        19   3.5506924           7035   217            252            487            0              6079           4.6343895e-13
        20   3.7163444           7426   223            256            503            0              6444           4.7569321e-13
        21   3.8050402           7830   230            262            516            0              6822           4.8747738e-13
        22   3.8920838           8240   232            265            536            0              7207           4.9902602e-13
        23   3.9821617           8633   236            266            556            0              7575           5.102661e-13 
        24   4.0722939           9042   240            269            579            0              7954           5.2126718e-13
        25   4.1564006           9434   244            271            587            0              8332           5.3185534e-13
        26   4.2529698           9833   247            276            598            0              8712           5.4200216e-13
        27   4.3478929          10242   249            286            614            0              9093           5.5192985e-13
        28   4.4318372          10651   253            289            619            0              9490           5.6158613e-13
        29   4.5552447          11038   255            294            636            0              9853           5.7058833e-13
        30   4.7061361          11459   259            298            651            0              10251          5.7904197e-13
        31   4.7976125          11872   261            302            663            0              10646          5.8686558e-13
        32   4.8970243          12274   264            306            672            0              11032          5.9456284e-13
        33   5.0261494          12665   268            308            678            0              11411          6.0203585e-13
        34   5.1627755          13086   268            310            687            0              11821          6.0943413e-13
        35   5.3159292          13454   272            311            696            0              12175          6.1611461e-13
        36   5.4544033          13869   276            312            701            0              12580          6.23009e-13  
        37   5.682203           14264   278            317            707            0              12962          6.2951333e-13
        38   5.9819341          14664   282            320            712            0              13350          6.3528558e-13
        39   6.2419058          15059   286            321            720            0              13732          6.4082686e-13
        40   6.7113147          15459   288            324            723            0              14124          6.463344e-13 
        41   7.1322557          15837   290            326            732            0              14489          6.5133266e-13
        42   8.0950709          16275   293            329            737            0              14916          6.5670853e-13
        43   8.9615754          16661   297            330            745            0              15289          6.6175605e-13
        44   9.6494512          17083   300            331            757            0              15695          6.6693371e-13
        45   10.561503          17484   303            334            762            0              16085          6.7188708e-13
        46   11.503571          17901   305            338            771            0              16487          6.7646407e-13
        47   12.431393          18317   308            338            778            0              16893          6.8093393e-13
        48   13.37407           18722   308            340            781            0              17293          6.853971e-13 
        49   14.326275          19106   312            340            788            0              17666          6.8958345e-13
        50   15.366184          19549   318            341            796            0              18094          6.9369116e-13
        51   16.401605          19943   320            343            801            1              18478          6.9777746e-13
        52   17.44236           20353   321            344            808            2              18878          7.0146812e-13
        53   18.500877          20783   323            346            812            2              19300          7.050454e-13 
        54   19.555246          21183   326            349            816            2              19690          7.0854179e-13
        55   20.670839          21602   327            352            826            2              20095          7.1211714e-13
        56   21.804816          22029   330            354            831            2              20512          7.1563591e-13
        57   22.96295           22453   334            357            833            2              20927          7.190869e-13 
        58   24.110305          22850   336            357            837            2              21318          7.2216022e-13
        59   25.334465          23270   336            357            840            2              21735          7.2558513e-13
        60   26.617036          23685   337            361            843            4              22140          7.2878628e-13
        61   27.924453          24102   337            362            850            4              22549          7.3222112e-13
        62   29.180762          24526   340            362            855            5              22964          7.351505e-13 
        63   30.43844           24941   342            363            859            7              23370          7.3803977e-13
        64   31.742204          25349   344            365            860            8              23772          7.4101994e-13
        65   33.085822          25768   344            367            866            10             24181          7.4390923e-13
        66   34.462392          26192   347            368            872            11             24594          7.4670598e-13
        67   35.864844          26625   351            370            873            11             25020          7.4963596e-13
        68   37.312277          27042   354            374            877            11             25426          7.5249807e-13
        69   38.783051          27498   355            376            885            13             25869          7.5581084e-13
        70   40.365991          27904   356            376            888            15             26269          7.5898463e-13
        71   41.954487          28358   359            377            885            22             26715          7.6275636e-13
        72   43.506046          28753   360            377            884            32             27100          7.6637488e-13
        73   45.099133          29204   361            379            887            38             27539          7.702063e-13 
        74   46.727348          29617   363            380            890            42             27942          7.7424311e-13
        75   48.366863          30069   364            382            901            45             28377          7.7858498e-13
        76   50.056102          30497   365            384            904            51             28793          7.8276836e-13
        77   51.785129          30924   366            385            907            56             29210          7.8722703e-13
        78   53.596407          31359   367            385            918            58             29631          7.9218036e-13
        79   55.453295          31792   368            389            923            68             30044          7.9767285e-13
        80   57.371794          32235   368            389            934            73             30471          8.0376437e-13
        81   59.288656          32664   368            390            946            79             30881          8.0977638e-13
        82   61.27494           33106   368            391            960            83             31304          8.164079e-13 
        83   63.384374          33525   369            392            977            86             31701          8.2354115e-13
        84   65.471742          33955   369            393            989            93             32111          8.3183019e-13
        85   67.534161          34401   369            394            1011           101            32526          8.4088355e-13
        86   69.707298          34815   370            395            1030           106            32914          8.5004895e-13
        87   71.915326          35256   371            398            1050           115            33322          8.6002574e-13
        88   74.117233          35697   372            401            1070           124            33730          8.7092323e-13
        89   76.409678          36120   372            402            1095           131            34120          8.8219994e-13
        90   78.803541          36562   374            402            1128           135            34523          8.942218e-13 
        91   81.226326          36992   375            403            1164           144            34906          9.0660653e-13
        92   83.638544          37438   376            404            1195           151            35312          9.2015377e-13
        93   86.120842          37840   377            405            1237           153            35668          9.343085e-13 
        94   88.575198          38304   377            405            1280           157            36085          9.4932949e-13
        95   91.068561          38687   377            405            1317           164            36424          9.646347e-13 
        96   93.627796          39131   377            405            1357           168            36824          9.8058052e-13
        97   96.237666          39563   378            405            1404           176            37200          9.9715311e-13
        98   98.873217          39972   379            405            1457           180            37551          1.0145955e-12
        99   101.49181          40413   380            405            1520           187            37921          1.0327283e-12
       100   104.27192          40820   381            405            1571           192            38271          1.0509294e-12
       101   107.01159          41237   382            406            1617           200            38632          1.0692481e-12
       102   109.81364          41629   383            407            1657           206            38976          1.0875095e-12
       103   112.69636          42046   383            407            1714           209            39333          1.1058934e-12
       104   115.5945           42443   384            407            1779           218            39655          1.1249222e-12
       105   118.50121          42861   385            409            1840           223            40004          1.1443052e-12
       106   121.42654          43255   385            409            1890           226            40345          1.1636783e-12
       107   124.40566          43657   386            411            1950           233            40677          1.1827118e-12
       108   127.41521          44009   386            411            1984           240            40988          1.2014131e-12
       109   130.46254          44418   386            412            2039           251            41330          1.2201979e-12
       110   133.70679          44814   387            414            2098           259            41656          1.2387988e-12
       111   136.89737          45202   388            416            2155           270            41973          1.256983e-12 
       112   140.11405          45595   390            416            2211           275            42303          1.2748308e-12
       113   143.37998          45984   391            418            2269           280            42626          1.2926718e-12
       114   146.7091           46362   392            419            2331           284            42936          1.3106852e-12
       115   150.04817          46739   392            419            2386           293            43249          1.3281196e-12
       116   153.44164          47124   392            422            2437           301            43572          1.3453247e-12
       117   156.89732          47486   392            426            2490           312            43866          1.3622482e-12
       118   160.40916          47873   392            427            2538           322            44194          1.3796682e-12
       119   163.95649          48241   393            428            2589           332            44499          1.396733e-12 
       120   167.67338          48611   393            430            2633           343            44812          1.4136405e-12
       121   171.32846          49000   395            431            2690           356            45128          1.430222e-12 
       122   175.10203          49393   395            433            2746           372            45447          1.4466846e-12
       123   178.86947          49766   396            435            2781           391            45763          1.46305e-12  
       124   182.73752          50141   397            439            2837           404            46064          1.4790384e-12
       125   186.67688          50545   397            442            2892           421            46393          1.4949375e-12
       126   190.66075          50903   397            443            2924           441            46698          1.5109657e-12
       127   194.70012          51278   398            444            2965           457            47014          1.5270428e-12
       128   198.81789          51682   398            449            3006           478            47351          1.5434633e-12
       129   203.00277          52081   399            450            3062           495            47675          1.5598145e-12
       130   207.31371          52419   400            450            3102           513            47954          1.5761111e-12
       131   211.61626          52831   401            451            3150           536            48293          1.5923391e-12
       132   215.95883          53233   403            452            3197           558            48623          1.6093499e-12
       133   220.31545          53610   403            457            3245           580            48925          1.6266408e-12
       134   224.78016          54022   405            458            3314           596            49249          1.6440458e-12
       135   229.32187          54435   406            460            3368           617            49584          1.661572e-12 
       136   233.90724          54796   406            460            3418           633            49879          1.6793964e-12
       137   238.58838          55189   406            460            3477           660            50186          1.6969384e-12
       138   243.32127          55565   406            460            3525           682            50492          1.7148842e-12
       139   248.10937          55979   407            461            3592           711            50808          1.7328983e-12
       140   253.08414          56368   407            462            3646           739            51114          1.7511842e-12
       141   258.04031          56788   408            462            3726           760            51432          1.7694851e-12
       142   263.03189          57185   408            462            3782           789            51744          1.788334e-12 
       143   268.05147          57600   408            463            3855           813            52061          1.8065504e-12
       144   273.12792          58018   410            463            3921           834            52390          1.8245542e-12
       145   278.3214           58422   411            463            3982           855            52711          1.8419476e-12
       146   283.59668          58818   411            463            4051           875            53018          1.8591622e-12
       147   288.90809          59211   412            463            4120           891            53325          1.8765861e-12
       148   294.35773          59652   412            463            4200           909            53668          1.8933239e-12
       149   299.89267          60085   413            464            4282           929            53997          1.9107776e-12
       150   305.64171          60488   413            464            4346           949            54316          1.9283272e-12
       151   311.31806          60914   415            466            4433           968            54632          1.9462113e-12
       152   317.10475          61335   415            466            4499           988            54967          1.9641501e-12
       153   322.96426          61794   415            466            4577           1014           55322          1.9822826e-12
       154   328.89422          62212   415            467            4646           1038           55646          2.0008213e-12
       155   334.93028          62648   416            467            4742           1053           55970          2.0192707e-12
       156   341.04057          63093   416            467            4822           1076           56312          2.0388064e-12
       157   347.21913          63538   416            467            4910           1095           56650          2.0587744e-12
       158   353.47231          63973   416            467            4992           1116           56982          2.0785904e-12
       159   359.82982          64452   416            467            5089           1134           57346          2.099429e-12 
       160   366.45375          64887   416            468            5195           1149           57659          2.1207329e-12
       161   373.01854          65341   416            468            5278           1168           58011          2.1424682e-12
       162   379.68924          65803   416            468            5365           1188           58366          2.1641761e-12
       163   386.39974          66287   416            467            5468           1212           58724          2.1863272e-12
       164   393.26029          66739   417            467            5556           1237           59062          2.2080555e-12
       165   400.1845           67230   417            467            5663           1266           59417          2.2306485e-12
       166   407.22832          67706   418            465            5761           1292           59770          2.2538538e-12
       167   414.36767          68206   418            464            5841           1330           60153          2.2777058e-12
       168   421.60347          68650   417            463            5934           1368           60468          2.3024628e-12
       169   428.9487           69195   417            463            6041           1409           60865          2.3281668e-12
       170   436.59643          69655   417            462            6134           1450           61192          2.3559718e-12
       171   444.16947          70172   417            462            6239           1492           61562          2.3852432e-12
       172   451.86304          70654   417            460            6352           1528           61897          2.4156219e-12
       173   459.62359          71150   417            457            6458           1572           62246          2.4465694e-12
       174   467.47023          71640   417            457            6558           1623           62585          2.4779708e-12
       175   475.41732          72146   417            457            6675           1660           62937          2.5095513e-12
       176   483.46468          72638   417            456            6794           1700           63271          2.5410598e-12
       177   491.61528          73141   417            456            6896           1744           63628          2.5725905e-12
       178   499.84412          73623   417            456            7012           1789           63949          2.6046921e-12
       179   508.18745          74155   417            456            7109           1853           64320          2.6372765e-12
       180   516.84077          74647   417            455            7230           1901           64644          2.6706898e-12
       181   525.41827          75175   416            455            7354           1948           65002          2.7067903e-12
       182   534.13221          75675   416            455            7490           2001           65313          2.7443204e-12
       183   542.91059          76184   416            454            7628           2032           65654          2.7830687e-12
       184   551.80789          76721   416            454            7770           2086           65995          2.8229302e-12
       185   560.82168          77224   416            454            7889           2135           66330          2.8635055e-12
       186   569.90811          77700   414            452            8013           2190           66631          2.9049841e-12
       187   579.12643          78274   414            452            8170           2253           66985          2.9474919e-12
       188   588.51148          78746   413            452            8283           2308           67290          2.9906177e-12
       189   597.96234          79259   413            452            8407           2373           67614          3.0340647e-12
       190   607.79759          79788   413            452            8539           2432           67952          3.0780751e-12
       191   617.54931          80315   413            451            8690           2492           68269          3.12308e-12  
       192   627.43467          80859   413            451            8857           2553           68585          3.1701549e-12
       193   637.34464          81399   412            450            9015           2610           68912          3.2183959e-12
       194   647.40988          81924   412            450            9155           2685           69222          3.2678009e-12
       195   657.61924          82484   412            449            9338           2740           69545          3.3195501e-12
       196   667.8881           83000   412            449            9510           2796           69833          3.3726249e-12
       197   678.33454          83549   412            449            9657           2874           70157          3.4271641e-12
       198   688.88067          84102   412            448            9832           2939           70471          3.4829775e-12
       199   699.55193          84646   412            447            10006          3013           70768          3.5402319e-12
       200   710.56726          85198   410            447            10182          3083           71076          3.5981589e-12
       201   721.46093          85763   407            447            10377          3156           71376          3.6580692e-12
       202   732.537            86353   407            447            10573          3242           71684          3.7198478e-12
       203   743.69492          86893   405            447            10774          3307           71960          3.7848046e-12
       204   754.94134          87503   404            445            10985          3402           72267          3.8530761e-12
       205   766.34887          88113   403            445            11192          3487           72586          3.9243515e-12
       206   777.84831          88667   403            444            11418          3567           72835          3.9993374e-12
       207   789.48886          89299   402            443            11652          3663           73139          4.0782525e-12
       208   801.25179          89924   402            441            11894          3749           73438          4.161077e-12 
       209   813.11432          90522   401            436            12132          3837           73716          4.2467494e-12
       210   825.29881          91163   401            436            12411          3928           73987          4.3353326e-12
       211   837.43402          91827   401            435            12693          4013           74285          4.4273351e-12
       212   849.7563           92459   398            434            12964          4107           74556          4.5269823e-12
       213   862.38203          93155   395            433            13305          4198           74824          4.6340853e-12
       214   875.09596          93871   395            432            13638          4298           75108          4.7504427e-12
       215   887.97928          94591   391            429            14013          4391           75367          4.8759747e-12
       216   901.10641          95362   389            428            14415          4493           75637          5.0145026e-12
       217   914.47018          96161   388            425            14840          4586           75922          5.1603714e-12
       218   928.06964          96929   385            425            15262          4685           76172          5.3134325e-12
       219   941.86817          97728   383            423            15714          4785           76423          5.4699953e-12
       220   956.0689           98566   382            421            16155          4901           76707          5.6340976e-12
       221   970.24454          99433   378            420            16675          5013           76947          5.7959246e-12
       222   984.6388          100266   377            420            17151          5127           77191          5.9638955e-12
       223   999.13944         101069   376            419            17589          5241           77444          6.1286693e-12
       224   1013.7926         101950   373            419            18108          5365           77685          6.3050134e-12
       225   1028.5757         102819   370            416            18639          5482           77912          6.4859849e-12
       226   1043.4827         103770   370            414            19211          5598           78177          6.6811651e-12
       227   1058.5141         104727   369            413            19818          5724           78403          6.8881217e-12
       228   1073.6676         105660   369            409            20414          5850           78618          7.0958189e-12
       229   1088.9869         106668   365            405            21055          5986           78857          7.3142366e-12
       230   1104.7369         107697   360            402            21751          6120           79064          7.5448461e-12
       231   1120.4941         108721   357            399            22412          6278           79275          7.7681486e-12
       232   1136.4288         109694   353            393            23048          6418           79482          7.9940381e-12
       233   1152.5406         110755   351            389            23748          6573           79694          8.2235016e-12
       234   1168.8244         111825   349            384            24491          6711           79890          8.4555812e-12
       235   1185.2371         112818   341            378            25169          6849           80081          8.6761075e-12
       236   1201.8236         113857   340            375            25917          6971           80254          8.8969636e-12
       237   1218.5244         114903   338            367            26673          7094           80431          9.1223613e-12
       238   1235.3128         115872   336            365            27356          7215           80600          9.3349159e-12
       239   1252.2028         116964   332            358            28139          7367           80768          9.559288e-12 
       240   1269.4221         118050   326            356            28938          7520           80910          9.7995891e-12
       241   1286.4607         118979   325            354            29592          7670           81038          9.9912093e-12
       242   1303.5397         119981   321            348            30291          7855           81166          1.0204534e-11
       243   1320.7113         120988   316            345            30998          8030           81299          1.0404256e-11
       244   1338.0044         122046   311            342            31749          8230           81414          1.0621422e-11
       245   1355.3769         123038   306            340            32459          8426           81507          1.0817169e-11
       246   1372.78           123902   300            332            33029          8645           81596          1.0985981e-11
       247   1390.2762         124838   295            328            33657          8881           81677          1.1182273e-11
       248   1407.9161         125750   293            321            34248          9124           81764          1.1341469e-11
       249   1425.616          126639   283            317            34764          9426           81849          1.1498175e-11
       250   1443.6914         127593   280            309            35351          9730           81923          1.1648785e-11
       251   1461.5939         128385   273            302            35773          10064          81973          1.1795184e-11
       252   1479.573          129195   264            295            36205          10405          82026          1.1916503e-11
       253   1497.5796         129931   253            291            36566          10755          82066          1.2029326e-11
       254   1515.6739         130690   242            283            36927          11122          82116          1.2141662e-11
       255   1533.8671         131397   236            274            37242          11490          82155          1.2224378e-11
       256   1552.1426         132112   231            265            37593          11836          82187          1.2309531e-11
       257   1570.4734         132806   227            259            37898          12197          82225          1.2373047e-11
       258   1588.833          133368   223            256            38069          12556          82264          1.2405989e-11
       259   1607.2921         134002   219            248            38330          12897          82308          1.2475553e-11
       260   1626.1384         134564   210            238            38541          13237          82338          1.2506502e-11
       261   1644.7372         135147   207            224            38767          13588          82361          1.2541662e-11
       262   1663.4342         135703   196            217            38963          13919          82408          1.2535593e-11
       263   1682.2057         136267   183            210            39177          14261          82436          1.2575528e-11
       264   1701.0304         136779   167            202            39315          14625          82470          1.2571263e-11
       265   1719.8902         137235   159            194            39439          14942          82501          1.2558754e-11
       266   1738.799          137691   153            188            39536          15293          82521          1.2548241e-11
       267   1757.7682         138165   143            179            39707          15582          82554          1.255492e-11 
       268   1776.7901         138595   138            170            39797          15914          82576          1.253463e-11 
       269   1795.9333         139061   130            160            39917          16252          82602          1.2518415e-11
       270   1815.4311         139592   126            154            40094          16592          82626          1.2517681e-11
       271   1834.6727         139949   121            151            40086          16930          82661          1.2498886e-11
       272   1854.0426         140407   117            145            40163          17286          82696          1.2511217e-11
       273   1873.4242         140904   114            140            40277          17651          82722          1.2507097e-11
       274   1892.8249         141332   107            130            40353          17992          82750          1.2486405e-11
       275   1912.2621         141801   102            127            40452          18343          82777          1.249231e-11 
       276   1931.8428         142251   98             119            40535          18693          82806          1.2473798e-11
       277   1951.4793         142607   94             109            40524          19049          82831          1.2440315e-11
       278   1971.1386         142980   89             101            40536          19394          82860          1.2438597e-11
       279   1990.9613         143449   83             93             40664          19722          82887          1.2430332e-11
       280   2011.1496         143872   78             92             40710          20074          82918          1.2419231e-11
       281   2031.0753         144292   72             89             40768          20408          82955          1.2398409e-11
       282   2051.0145         144709   71             82             40830          20748          82978          1.2394815e-11
       283   2071.0258         145129   65             75             40920          21064          83005          1.2391784e-11
       284   2091.0836         145553   64             74             40973          21407          83035          1.2387911e-11
       285   2111.1701         145942   61             74             40987          21755          83065          1.2388354e-11
       286   2131.3538         146466   59             68             41147          22095          83097          1.2396133e-11
       287   2151.5752         146865   56             67             41185          22431          83126          1.2382912e-11
       288   2171.807          147193   52             63             41137          22790          83151          1.2360802e-11
       289   2192.1028         147593   46             60             41167          23142          83178          1.2369666e-11
       290   2212.8283         147984   44             59             41179          23486          83216          1.2346678e-11
       291   2233.3381         148363   40             55             41219          23812          83237          1.2328711e-11
       292   2253.8516         148776   37             53             41265          24154          83267          1.2340091e-11
       293   2274.451          149167   37             53             41250          24528          83299          1.2335601e-11
       294   2295.0863         149437   35             52             41140          24884          83326          1.2308608e-11
       295   2315.8406         149871   34             51             41179          25253          83354          1.2294517e-11
       296   2336.6888         150283   32             48             41201          25622          83380          1.2310092e-11
       297   2357.5495         150645   32             47             41164          25991          83411          1.2296966e-11
       298   2378.5248         151060   32             47             41174          26366          83441          1.2317892e-11
       299   2399.5392         151403   31             46             41094          26767          83465          1.2308976e-11
       300   2420.9472         151771   31             45             41032          27165          83498          1.2301609e-11
       301   2442.1557         152116   31             43             40934          27580          83528          1.2288224e-11
       302   2463.3914         152534   30             42             40880          28023          83559          1.2297062e-11
       303   2484.7721         152934   30             40             40858          28420          83586          1.2305266e-11
       304   2506.184          153318   30             39             40789          28848          83612          1.2312048e-11
       305   2527.709          153694   30             35             40650          29329          83650          1.2295066e-11
       306   2549.2631         153971   29             35             40409          29828          83670          1.2270831e-11
       307   2570.9501         154377   29             34             40365          30245          83704          1.2279247e-11
       308   2592.7377         154783   29             33             40271          30722          83728          1.2310415e-11
       309   2614.5556         155177   29             32             40159          31199          83758          1.2306453e-11
       310   2636.7827         155455   27             32             39881          31733          83782          1.2300877e-11
       311   2658.8596         155844   26             31             39776          32197          83814          1.2331907e-11
       312   2680.8952         156180   26             30             39629          32659          83836          1.2309289e-11
       313   2703.0223         156542   26             29             39449          33173          83865          1.2312664e-11
       314   2725.2093         156867   26             28             39236          33687          83890          1.2323973e-11
       315   2747.4439         157247   26             28             39050          34225          83918          1.2325571e-11
       316   2769.7272         157554   26             26             38834          34724          83944          1.2321652e-11
       317   2792.0842         157908   26             26             38686          35199          83971          1.2318298e-11
       318   2814.5101         158261   26             26             38537          35675          83997          1.2324064e-11
       319   2837.0589         158646   26             25             38419          36153          84023          1.2327495e-11
       320   2860.0451         158973   25             25             38231          36644          84048          1.2362728e-11
       321   2882.7434         159308   25             25             38044          37141          84073          1.2367732e-11
       322   2905.4373         159655   25             25             37897          37611          84097          1.2368705e-11
       323   2928.1039         160004   25             25             37743          38083          84128          1.2381403e-11
       324   2950.9533         160383   24             25             37640          38543          84151          1.2400129e-11
       325   2973.9306         160678   24             25             37497          38953          84179          1.2385254e-11
       326   2996.9939         161011   23             23             37351          39411          84203          1.2379137e-11
       327   3020.1314         161335   23             23             37240          39823          84226          1.2407633e-11
       328   3043.2921         161659   23             23             37136          40223          84254          1.2395166e-11
       329   3066.4079         161971   23             23             37022          40629          84274          1.2423742e-11
       330   3089.9071         162371   23             23             36972          41051          84302          1.2437752e-11
       331   3113.2361         162736   23             23             36882          41486          84322          1.2449611e-11
       332   3136.5774         163135   23             23             36859          41877          84353          1.2467217e-11
       333   3160.0982         163345   23             23             36681          42244          84374          1.2456458e-11
       334   3183.5954         163652   23             23             36593          42608          84405          1.2460135e-11
       335   3207.1387         163994   23             23             36555          42969          84424          1.2465414e-11
       336   3230.8723         164439   22             23             36600          43342          84452          1.2504058e-11
       337   3254.5279         164807   22             23             36590          43696          84476          1.2524167e-11
       338   3278.3624         165040   22             23             36418          44075          84502          1.2521195e-11
       339   3302.2942         165382   22             23             36406          44402          84529          1.2521299e-11
       340   3326.5456         165694   22             23             36367          44731          84551          1.2539261e-11
       341   3350.5755         166059   22             23             36330          45108          84576          1.2550795e-11
       342   3374.6215         166467   22             23             36356          45464          84602          1.2566443e-11
       343   3398.7479         166706   22             23             36250          45786          84625          1.2582084e-11
       344   3422.9434         167071   22             23             36237          46135          84654          1.259088e-11 
       345   3447.2139         167456   22             23             36237          46499          84675          1.2614643e-11
       346   3471.5405         167713   22             23             36157          46808          84703          1.2615093e-11
       347   3495.9294         168043   22             23             36136          47134          84728          1.2626616e-11
       348   3520.4202         168336   22             23             36068          47471          84752          1.2623313e-11
       349   3544.9343         168679   22             23             36079          47778          84777          1.2647069e-11
       350   3569.9385         169066   22             23             36135          48086          84800          1.2665975e-11
Loop time of 3569.94 on 16 procs for 350 steps with 169066 atoms

98.0% CPU use with 16 MPI tasks x 1 OpenMP threads

MPI task timing breakdown:
Section |  min time  |  avg time  |  max time  |%varavg| %total
---------------------------------------------------------------
Pair    | 917.06     | 1112.3     | 1298.8     | 374.7 | 31.16
Neigh   | 668        | 793.55     | 1081       | 388.1 | 22.23
Comm    | 450.55     | 528.3      | 619.99     | 204.2 | 14.80
Output  | 6.8539     | 6.8541     | 6.856      |   0.0 |  0.19
Modify  | 653.04     | 1112.5     | 1449.1     | 678.1 | 31.16
Other   |            | 16.43      |            |       |  0.46

Nlocal:        10566.6 ave       15620 max        8937 min
Histogram: 6 5 1 1 1 0 0 0 0 2
Nghost:        8107.81 ave        9998 max        7047 min
Histogram: 4 1 2 4 0 1 2 1 0 1
Neighs:         105606 ave      117772 max       97149 min
Histogram: 2 0 4 4 2 0 2 0 1 1

Total # of neighbors = 1689698
Ave neighs/atom = 9.9943099
Neighbor list builds = 31161
Dangerous builds = 30811

Total wall time: 0:59:30
